begin
lattice             9.716666            0.000000            0.000000
lattice             0.000000            9.716666            0.000000
lattice             0.000000            0.000000           14.129322
atom          -0.006589478         0.009994765         3.257579222 O      -0.240244      0.000000     -0.000411      0.001926      0.009947
atom           0.001719651         4.858527487         6.808015088 O      -0.242134      0.000000     -0.020804      0.000443      0.013399
atom           4.823418251         0.026257755         7.310958337 O      -0.239876      0.000000      0.000770     -0.040620      0.001369
atom           4.828375005         4.830119223         3.792500430 O      -0.241319      0.000000      0.016998      0.000707     -0.006202
atom           4.811588561         4.853771044        10.349414279 O      -0.242113      0.000000      0.000848      0.021624      0.014391
atom           4.879237004         9.697362130        13.917547437 O      -0.240743      0.000000      0.000740     -0.001655     -0.025347
atom           9.668488993         4.832887673        14.364881694 O      -0.243392      0.000000      0.000278     -0.007567     -0.001733
atom           9.674477538         9.765201435        10.883700539 O      -0.239044      0.000000      0.021521     -0.002604     -0.026971
atom           0.045436593         1.442192310         4.437320594 H       0.119710      0.000000     -0.000443      0.000689     -0.005578
atom           4.870619849         3.359643371        11.439214100 H       0.120474      0.000000      0.000354      0.004548      0.001447
atom          -1.507714810         4.848579965         7.962623092 H       0.121814      0.000000      0.017411     -0.000244     -0.013773
atom           6.274666133         0.011485760        15.061633442 H       0.120400      0.000000      0.017450      0.000380      0.011962
atom           4.886338597         1.423960225         6.185947235 H       0.117144      0.000000      0.000233      0.021847     -0.015970
atom           0.032102680         3.374638354        -0.921449723 H       0.119301      0.000000     -0.001328      0.005873      0.003979
atom           6.294290946         4.843158338         2.612777955 H       0.122547      0.000000     -0.011758     -0.000275      0.009212
atom          -1.486236174        -0.043061206        -4.420296045 H       0.118414      0.000000      0.004767      0.001510      0.005612
atom           4.860581620         6.364494300        11.527454897 H       0.124276      0.000000     -0.000699     -0.025134     -0.015070
atom           9.691025876         8.297431672        18.560825584 H       0.119064      0.000000      0.000666     -0.002807     -0.003734
atom           3.425343505         9.758370073        14.980433768 H       0.120952      0.000000     -0.018566      0.000266      0.012555
atom          11.144424266         4.857796163        22.102914526 H       0.117229      0.000000      0.002828     -0.000161      0.001269
atom           9.692463958         6.303535490        13.260655697 H       0.119168      0.000000      0.000179      0.001868     -0.002312
atom           4.906481196         8.234564238         6.155131459 H       0.125091      0.000000     -0.002115      0.017327      0.014659
atom          11.189203234         9.693945504         9.690663048 H       0.123457      0.000000     -0.024905      0.001809      0.020449
atom           3.361888366         4.876052814         2.690360692 H       0.119954      0.000000     -0.004013      0.000251     -0.003560
energy          -612.577467
charge             0.000000
end
begin
lattice            15.866107            0.000000            0.000000
lattice            -0.002748           15.735538            0.000000
lattice             0.001330           -0.006648            7.617187
atom          14.485083441        16.367565106         8.726065192 H       0.110185      0.000000     -0.009273      0.003171      0.003439
atom          15.150615012        14.412427222         6.484308653 H       0.122758      0.000000      0.011748      0.024537      0.025975
atom           4.418859852         3.612910236         2.186880760 H       0.118755      0.000000      0.032202      0.009635     -0.029215
atom           6.708122235         5.305105853         1.785546235 H       0.099468      0.000000      0.034002      0.043049      0.027982
atom           5.518856640         9.109027792         5.909958294 H       0.114566      0.000000     -0.010895      0.008840      0.008117
atom           3.593510300        11.305682220         5.224796240 H       0.114547      0.000000      0.009643     -0.020520      0.028030
atom           9.130311786        13.163168467         0.192759700 H       0.121056      0.000000      0.006699     -0.009370      0.007559
atom          11.300171776        11.333066252        -0.225304577 H       0.115910      0.000000      0.019554     -0.008807     -0.019218
atom          13.358044662         6.509927680         7.399030948 H       0.109629      0.000000      0.002400      0.003455     -0.001317
atom          11.458812458         4.393475151         8.078850744 H       0.113064      0.000000      0.007977      0.019262     -0.025243
atom           0.799282660         6.622336194         2.950082865 H       0.115910      0.000000     -0.000312     -0.001274     -0.000185
atom           1.411408659         8.520927780         0.784374604 H       0.112250      0.000000      0.002917      0.001678     -0.000995
atom          10.309896311         1.179261381         3.549226440 H       0.123139      0.000000      0.037192      0.029997     -0.003888
atom          12.297227582         3.414343405         4.279689027 H       0.100311      0.000000     -0.002902      0.011923      0.018648
atom           4.264331216        12.325771906         1.381841992 H       0.110007      0.000000     -0.000959      0.019252      0.028178
atom           2.546210436        14.436296362         2.087054048 H       0.097556      0.000000     -0.058628      0.037230     -0.024176
atom           9.462601360         7.242771322         4.810267642 H       0.109554      0.000000      0.011105      0.000481      0.003663
atom           8.641025593         9.272577984         2.708691043 H       0.108641      0.000000      0.009652      0.001935     -0.000029
atom          14.582311778        10.366164818         3.888780125 H       0.100133      0.000000      0.030616     -0.041034     -0.025757
atom          12.392456588        12.151864121         3.446476321 H       0.109288      0.000000      0.010570     -0.004408      0.010173
atom           3.333580258         4.318451104         5.934868673 H       0.102730      0.000000      0.108589      0.035753      0.117863
atom           1.144779535         2.445170520         5.464241643 H       0.125965      0.000000      0.022327      0.024075      0.000305
atom           6.561318803        -0.622194464         4.739246037 H       0.106331      0.000000     -0.082070     -0.037379     -0.061276
atom           7.086116744         1.277328758         6.801270652 H       0.122839      0.000000      0.007224     -0.003916     -0.007392
atom          15.889991440        15.794467636         7.682304786 O      -0.217751      0.000000     -0.006549     -0.029298     -0.035838
atom           5.854266153         4.085498803         0.860386978 O      -0.233984      0.000000     -0.067046     -0.056123      0.004627
atom           4.065832415        10.068362760         6.711485949 O      -0.215261      0.000000      0.002429      0.016184     -0.039381
atom          10.135298775        11.803082900         1.071463801 O      -0.204152      0.000000     -0.026960      0.023093      0.005602
atom          11.908333129         5.649432987         6.613539515 O      -0.216790      0.000000     -0.006785     -0.022360      0.032095
atom           0.033720286         7.935412915         1.880391627 O      -0.219139      0.000000     -0.001721     -0.003952     -0.000084
atom          11.907654717         2.219943422         2.954242153 O      -0.228377      0.000000     -0.036909     -0.042461     -0.017200
atom           3.905878373        13.655332715         2.829334986 O      -0.232383      0.000000      0.060738     -0.064492     -0.002388
atom           8.081199674         7.874790477         3.778512672 O      -0.231720      0.000000     -0.024489     -0.003252      0.000764
atom          13.713834879        11.648027031         4.720985606 O      -0.240425      0.000000     -0.040418      0.051417      0.021912
atom           2.235947519         3.919512753         4.809562774 O      -0.225917      0.000000     -0.130658     -0.059274     -0.120920
atom           7.835091094        -0.054533738         5.682592025 O      -0.218515      0.000000      0.078990      0.042955      0.069569
energy          -918.835853
charge             0.000000
end
begin
lattice            14.782194            0.000000            0.000000
lattice             0.000000           14.782194            0.000000
lattice             0.000000            0.000000           14.782194
atom          15.413961680         7.286480705        13.896820912 O      -0.231515      0.000000     -0.049031      0.013330     -0.013982
atom          15.006228540         8.917381141        12.914452064 H       0.105632      0.000000      0.010540     -0.015506      0.012454
atom          13.566481536         6.671353819        13.943669132 H       0.136101      0.000000      0.040476      0.001705      0.005546
atom           1.140563554         5.234698409         7.895902505 O      -0.261837      0.000000     -0.040271      0.020104     -0.033311
atom           1.422610960         3.490576877         8.315576830 H       0.102985      0.000000     -0.002399     -0.015408      0.001555
atom          -0.458600808         5.226924073         6.666383838 H       0.103146      0.000000      0.039195      0.002299      0.025844
atom          11.665263230         5.479688271         4.960376207 O      -0.243943      0.000000     -0.014041     -0.036577     -0.001989
atom          11.104751340         3.651014689         5.376955159 H       0.104294      0.000000      0.006695      0.032373     -0.004150
atom          10.858758034         5.750229129         3.259442493 H       0.106638      0.000000      0.010731      0.010224      0.013861
atom           0.938372227        14.673608263         7.636751030 O      -0.211365      0.000000      0.002414     -0.018073      0.055677
atom          -0.192094517        13.934965050         9.074084853 H       0.126583      0.000000      0.024570      0.012480     -0.030812
atom           2.698409039        14.266126457         8.356901377 H       0.110318      0.000000     -0.023207      0.003799     -0.007747
atom           4.409430115         9.484645024         2.323914305 O      -0.242446      0.000000     -0.005847      0.030324     -0.005170
atom           3.594925705        11.202722341         1.918705839 H       0.126962      0.000000      0.004415     -0.034337      0.012969
atom           3.238098028         8.257259858         1.585452505 H       0.113522      0.000000     -0.005572      0.009296     -0.000353
atom           9.138167381         1.125432511         5.522316730 O      -0.217073      0.000000     -0.002288     -0.030367      0.015404
atom           8.523174666        -0.197298824         6.772053585 H       0.138772      0.000000      0.002582      0.031997     -0.018572
atom           7.657494562         2.047411358         4.803149041 H       0.107625      0.000000     -0.002204     -0.011008      0.015989
atom           7.011170176         1.384221159        13.861180664 O      -0.206143      0.000000      0.014963     -0.013187     -0.002240
atom           6.722178024         2.955581970        12.919731961 H       0.129510      0.000000     -0.009865      0.008951      0.013139
atom           6.329224437         1.395844869        15.584645591 H       0.133478      0.000000     -0.006234      0.016969     -0.014665
atom           5.374294423         6.072448349        12.091007357 O      -0.227777      0.000000     -0.009919      0.005476      0.013489
atom           3.688036328         6.618091867        12.875597390 H       0.114316      0.000000      0.019069     -0.012514     -0.022062
atom           5.634645875         7.044884793        10.524217795 H       0.116967      0.000000     -0.009125     -0.004755      0.010986
atom           4.701691495         8.904752096         7.517490367 O      -0.245798      0.000000     -0.003294     -0.008309     -0.026247
atom           3.264420033         7.693949284         7.785481984 H       0.098661      0.000000      0.004905      0.004179     -0.003198
atom           4.725169461         9.094340835         5.565616042 H       0.104226      0.000000     -0.000944      0.000230      0.026307
atom           4.966249478         3.058806411         3.667264450 O      -0.181149      0.000000     -0.044893     -0.011190     -0.002241
atom           4.087755137         4.608628115         4.108831261 H       0.151775      0.000000      0.012265      0.011512      0.003949
atom           3.366767641         2.009775557         3.692634034 H       0.142438      0.000000      0.023471     -0.003282     -0.005677
atom           5.595040979        13.837602541         9.815689268 O      -0.240303      0.000000      0.057321     -0.049204     -0.003920
atom           6.623099643        14.565856037        11.267847998 H       0.096734      0.000000     -0.025563     -0.007107     -0.011885
atom           6.599559316        12.136855910         9.463585908 H       0.124101      0.000000     -0.039113      0.047989      0.007382
atom           0.845932457        13.555309471         2.871664868 O      -0.291660      0.000000     -0.018947      0.009184     -0.040351
atom          -0.911434170        13.881173974         2.029504306 H       0.102427      0.000000      0.039772     -0.003871      0.028553
atom           0.819444156        13.958539392         4.682900050 H       0.082009      0.000000     -0.013593     -0.003393      0.007563
atom          10.723631224        13.531980793         1.206942101 O      -0.214683      0.000000      0.015908     -0.021910     -0.007036
atom           9.990220663        13.612271508         2.910644265 H       0.129555      0.000000     -0.001919      0.009594     -0.004116
atom           9.570829798        14.211683425        -0.061667457 H       0.116768      0.000000     -0.006955      0.012671      0.007165
atom           9.576825901         7.321531359         0.575933950 O      -0.236177      0.000000     -0.018638      0.022668     -0.020609
atom           7.921701057         6.738881319        -0.217603940 H       0.107329      0.000000      0.024309      0.012580      0.005491
atom           9.540930539         9.221290797         0.272349327 H       0.131116      0.000000     -0.000617     -0.037725      0.011671
atom          13.422752690        11.625407000        11.778726211 O      -0.224513      0.000000     -0.008835      0.008053      0.025551
atom          12.134673276        10.730704471        10.699423822 H       0.117578      0.000000      0.000281      0.010819      0.022446
atom          12.757355289        12.142744299        13.593413924 H       0.128232      0.000000      0.004297     -0.016591     -0.053542
atom           9.719787519         9.222271565         8.718636675 O      -0.261759      0.000000     -0.029307     -0.002348      0.005987
atom           7.980248575         8.421834282         8.398416787 H       0.108654      0.000000      0.024958      0.019900     -0.000516
atom          10.829093101         8.100159304         7.834159459 H       0.119656      0.000000      0.009484     -0.012043     -0.014588
energy         -1225.044709
charge             0.000000
end
begin
lattice            14.782194            0.000000            0.000000
lattice             0.000000           14.782194            0.000000
lattice             0.000000            0.000000           14.782194
atom          11.485994289        14.209812596        13.384257063 O      -0.308181      0.000000      0.044618     -0.034118      0.003092
atom          10.649141970        14.020059451        11.808504527 H       0.106857      0.000000     -0.015396      0.007167     -0.012796
atom          10.713007179        15.356156825        14.508901558 H       0.105614      0.000000     -0.019678      0.023453      0.008635
atom           7.610774845         7.843179125         7.050587989 O      -0.223458      0.000000     -0.042742     -0.007915      0.016676
atom           9.194711788         8.326212213         6.384230607 H       0.111455      0.000000      0.031784      0.007294     -0.011869
atom           7.930839776         6.791262659         8.558444528 H       0.107582      0.000000      0.010924      0.000898     -0.000200
atom           6.052479605         9.904281554         1.074016822 O      -0.243431      0.000000      0.051217     -0.008518     -0.011587
atom           6.765161751        11.590263749         1.253040098 H       0.122763      0.000000     -0.008818      0.006039      0.000670
atom           7.748182555         9.083886866         0.772359721 H       0.122074      0.000000     -0.022760     -0.003717      0.004097
atom           2.942420022         4.973738466         3.649691880 O      -0.285941      0.000000      0.003596      0.018883      0.014816
atom           2.690763204         6.487823545         4.933746176 H       0.112400      0.000000      0.020994     -0.035999     -0.040590
atom           4.604827874         5.068279612         2.756729790 H       0.119646      0.000000     -0.019058      0.011530      0.021159
atom           2.915045438         9.142122579         7.627005709 O      -0.259288      0.000000      0.024510     -0.011321      0.030001
atom           4.907148270         8.769415526         7.583228296 H       0.096422      0.000000     -0.041969      0.008815     -0.005729
atom           2.350466857         8.763122736         9.444454313 H       0.093942      0.000000      0.008802      0.007820     -0.028367
atom           1.590785314        10.810543542         3.063190577 O      -0.294196      0.000000     -0.022594      0.005959      0.021069
atom           1.656751900        10.892843037         4.957573742 H       0.091079      0.000000      0.008407      0.003860     -0.024726
atom           3.230397391        11.370212613         2.517490367 H       0.100612      0.000000      0.004093     -0.006495     -0.000323
atom          12.314244572         7.493823428         5.717024738 O      -0.182458      0.000000      0.023183     -0.000581      0.011194
atom          14.020771878         8.450242546         5.559049241 H       0.150179      0.000000     -0.036062     -0.034608      0.017744
atom          12.201134970         6.020703848         6.956438016 H       0.168343      0.000000      0.020027      0.032147     -0.028181
atom           8.318218668         3.112691973         1.044724166 O      -0.261045      0.000000      0.000409      0.026210     -0.042615
atom           7.171080754         1.853124758         0.328425083 H       0.091775      0.000000     -0.001599     -0.003515      0.007429
atom           8.575198847         2.810517086         2.764687430 H       0.114585      0.000000      0.005168     -0.017935      0.042868
atom           7.743654770        13.094490123         9.444448644 O      -0.221354      0.000000     -0.017053     -0.022054      0.027826
atom           7.089571164        12.572710076        11.249525206 H       0.152055      0.000000      0.013941      0.001394     -0.062643
atom           7.460409277        11.829023181         8.015223640 H       0.137418      0.000000     -0.002973      0.010005      0.045015
atom           9.458937180         0.135946952         5.197952670 O      -0.298861      0.000000     -0.025618     -0.006786      0.033824
atom          11.231068244         0.091566716         5.615521839 H       0.077785      0.000000      0.030090      0.004676     -0.018944
atom           9.034744518        -0.187706571         7.038975617 H       0.086927      0.000000     -0.013755      0.013531     -0.026814
atom          11.874665755         7.882545916         0.625486368 O      -0.239751      0.000000      0.008520      0.041482     -0.011552
atom          12.489316429         9.721036629         0.440931862 H       0.140943      0.000000     -0.012337     -0.037985      0.007734
atom          12.046783968         7.517050061         2.456960525 H       0.104690      0.000000      0.001071     -0.000753     -0.008440
atom           4.881344049         0.099361839        14.125090471 O      -0.175956      0.000000     -0.068245      0.026760     -0.020874
atom           3.646486903         1.101748564        15.185671335 H       0.164442      0.000000      0.020473     -0.018681     -0.003417
atom           3.780772785         0.315899973        12.536964003 H       0.155868      0.000000      0.029414     -0.007479      0.018787
atom          -0.537744460         0.273602216         5.960381876 O      -0.215693      0.000000      0.063142      0.008624      0.037671
atom           0.441309807        -0.023504423         7.670662179 H       0.139494      0.000000     -0.028453      0.013491     -0.048539
atom           0.763901303         1.329177194         5.012275666 H       0.131609      0.000000     -0.026683     -0.016029      0.016628
atom           2.771894848         3.309374746         9.127361922 O      -0.280166      0.000000      0.023937      0.007139     -0.016205
atom           1.481642248         4.786101815         9.376690597 H       0.122592      0.000000      0.055778     -0.029765     -0.013242
atom           4.385149014         3.529796269         7.885601604 H       0.151897      0.000000     -0.070803      0.008781      0.040480
atom           9.338644726         4.799029436        10.828437366 O      -0.234099      0.000000      0.044969      0.014703      0.017104
atom          11.053821311         5.312436104        11.763222891 H       0.152230      0.000000     -0.068299     -0.018691     -0.018560
atom           8.096275915         4.268093662        12.110480992 H       0.135060      0.000000      0.021637      0.007811      0.000754
atom           1.300396654         7.473438944        12.117981318 O      -0.210771      0.000000     -0.010014     -0.015742      0.040605
atom           2.470029877         7.254087007        13.585422269 H       0.149217      0.000000     -0.005333      0.006881     -0.020732
atom          -0.299449901         7.095183653        13.098154304 H       0.117198      0.000000      0.009538      0.013334     -0.008930
energy         -1224.939346
charge             0.000000
end
begin
lattice            24.111959            0.000000            0.000000
lattice             0.000000           24.111959            0.000000
lattice             0.000000            0.000000           24.111959
atom          17.158712491        11.772992779         4.913287992 O      -0.274180      0.000000      0.018821     -0.013168     -0.000818
atom          18.972848404        11.621814629         5.499103325 H       0.102237      0.000000     -0.023534     -0.000899     -0.004866
atom          16.553999890         9.977754135         4.610931692 H       0.101851      0.000000      0.000836      0.026911      0.002241
atom          19.312999242        15.306780151        15.363471957 O      -0.230806      0.000000     -0.022992     -0.012832      0.021310
atom          18.141368578        13.908384151        14.777656625 H       0.116998      0.000000      0.020367      0.007793     -0.001190
atom          18.651594835        15.533547376        17.139815223 H       0.130375      0.000000      0.008994      0.005971     -0.028736
atom           3.703862791         8.163616333         2.551129395 O      -0.213353      0.000000      0.019985     -0.001594      0.005155
atom           4.667623498         6.689629368         3.307020146 H       0.129673      0.000000     -0.000610      0.026039     -0.008432
atom           4.497548079         9.826575985         3.042458383 H       0.130054      0.000000     -0.008430     -0.024071     -0.004546
atom           1.020452514         3.250328340        18.481519416 O      -0.255355      0.000000     -0.004323     -0.006891      0.004787
atom          -0.566918063         2.532232126        17.687836017 H       0.108555      0.000000      0.012420      0.014472      0.018441
atom           0.736993482         4.459753542        19.936609112 H       0.116512      0.000000     -0.011608     -0.012297     -0.021631
atom          10.884821147         1.303911546         3.269225609 O      -0.243092      0.000000      0.004167     -0.003438      0.001853
atom          10.469081234        -0.529123526         3.004663846 H       0.107848      0.000000      0.010067      0.017766      0.009042
atom          12.472191724         1.473986965         4.308575392 H       0.109422      0.000000     -0.016368     -0.010441     -0.018138
atom           4.743212573        15.231191076        21.712952377 O      -0.225634      0.000000     -0.005462     -0.033029     -0.029921
atom           3.760554597        14.758759357        20.125581800 H       0.137663      0.000000      0.012885      0.010305      0.032735
atom           6.160505842        13.946178689        21.618466033 H       0.128372      0.000000     -0.009324      0.023301     -0.001290
atom           6.765218443         4.346369929         5.423514249 O      -0.209999      0.000000     -0.019192     -0.011610      0.002180
atom           7.577801000         2.834588427         4.592034423 H       0.129196      0.000000     -0.012583      0.013037      0.011967
atom           5.234541562         3.760554597         6.406170336 H       0.160931      0.000000      0.032257      0.003236     -0.017466
atom           2.494437589        21.580671496         7.861260032 O      -0.241437      0.000000      0.008672      0.001105     -0.007262
atom           3.118047459        20.182273606         9.013993428 H       0.104921      0.000000      0.007879      0.021766     -0.011963
atom           4.006219091        22.279868551         6.916396593 H       0.137913      0.000000     -0.017765     -0.016666      0.022357
atom           1.492884233        14.834348432         6.803012981 O      -0.268096      0.000000      0.016797      0.011069      0.014513
atom           2.740102083        15.949287290         7.747876419 H       0.131434      0.000000     -0.023247     -0.019858     -0.019828
atom           2.475540320        14.078457681         5.347925174 H       0.099694      0.000000      0.002853      0.013379      0.014327
atom          13.776103270         5.272336099        16.062670902 O      -0.246872      0.000000     -0.007402     -0.022544     -0.015619
atom          13.473746969         6.632937562        14.739862088 H       0.089879      0.000000      0.004191     -0.014026      0.004104
atom          12.963520712         3.741657328        15.231191076 H       0.112758      0.000000      0.007761      0.023033      0.023122
atom          20.654705325        20.106684531        13.133596131 O      -0.202368      0.000000      0.034699     -0.038231      0.014581
atom          22.544430313        19.804328230        13.076904325 H       0.165928      0.000000     -0.034643      0.007577     -0.000774
atom          19.974403649        18.405930341        13.681616926 H       0.123933      0.000000      0.004808      0.014713     -0.002049
atom           9.637603297        13.001315250        20.333451756 O      -0.238597      0.000000      0.003275     -0.017839     -0.010751
atom          10.771437534        14.154046756        19.294101973 H       0.105842      0.000000     -0.014400     -0.020659      0.023175
atom           9.656500566        11.224971985        19.634252811 H       0.130378      0.000000      0.009933      0.031414      0.002957
atom          17.064226147         3.231431071        19.842122768 O      -0.229903      0.000000     -0.013742      0.011303      0.001685
atom          15.949287290         3.949527285        18.462622147 H       0.116492      0.000000      0.012979      0.001575      0.015674
atom          16.950842535         4.384164467        21.372801539 H       0.119735      0.000000      0.001977     -0.011770     -0.020282
atom          15.892595483         1.360603352         5.291233368 O      -0.224259      0.000000      0.009567      0.015028      0.000855
atom          15.722520064         1.776343265         7.143163819 H       0.137465      0.000000      0.013192     -0.003245     -0.033500
atom          17.328787910         2.248773095         4.384164467 H       0.131657      0.000000     -0.015806     -0.010162      0.029898
atom           3.760554597        23.848341859         1.870829609 O      -0.301207      0.000000      0.013409     -0.018375     -0.006405
atom           4.894390724        22.487738507         1.133836127 H       0.091860      0.000000     -0.021659      0.016273      0.008489
atom           2.173184020        22.903478420         2.381053976 H       0.081631      0.000000      0.011761      0.011645     -0.003317
atom           5.045568874        18.424827610        10.903718416 O      -0.255835      0.000000      0.013316     -0.018185      0.005504
atom           6.765218443        17.631144211        10.601362115 H       0.113969      0.000000     -0.024788      0.019262      0.006918
atom           4.686520767        18.368135803        12.774548025 H       0.097231      0.000000      0.005279     -0.005116     -0.017051