################################################################################
# Symmetry function scaling data.
################################################################################
# Col  Name     Description
################################################################################
# 1    e_index  Element index.
# 2    sf_index Symmetry function index.
# 3    sf_min   Symmetry function minimum.
# 4    sf_max   Symmetry function maximum.
# 5    sf_mean  Symmetry function mean.
# 6    sf_sigma Symmetry function sigma.
#########################################################################################################################
#        1          2                        3                        4                        5                        6
#  e_index   sf_index                   sf_min                   sf_max                  sf_mean                 sf_sigma
#########################################################################################################################
         1          1   9.1739161189824411E-08   7.0593095050533450E-01   2.2372649929284196E-02   9.6379208796011293E-02
         1          2   2.6433999906765265E-01   2.4749666370750676E+00   1.0378805142792313E+00   1.9413782463770093E-01
         1          3   1.5504686427401054E-05   1.4168627312588329E+00   5.5254915214857578E-02   2.1495058826125538E-01
         1          4   1.4086411910634238E+00   4.7388215758712082E+00   3.1031877925923803E+00   3.5864448236496921E-01
         1          5   9.8043626772015909E-04   1.9535901883323099E+00   1.1429456309160095E-01   2.2901461288065855E-01
         1          6   2.2158364445227399E+00   6.0748308460582043E+00   3.8835182764170546E+00   3.9299243538518969E-01
         1          7   1.0255080523534783E+00   5.1401074554660049E+00   2.5810215644603796E+00   4.3835591238870431E-01
         1          8   4.8489829707261999E-03   3.9129781874325281E-01   4.7557455423079396E-02   2.7778419734655713E-02
         1          9   9.3223803365223998E-02   2.8346930075434797E+00   6.0185719975366336E-01   3.1949957606875956E-01
         1         10   6.7206749586119430E-01   4.4876923880381465E+00   2.1991872165248538E+00   4.1504796440380803E-01
         1         11   2.2128378766968923E-02   8.6593017344520318E-01   1.4060436434125115E-01   7.5838421599526348E-02
         1         12   8.4205124330445313E-01   7.0656885702864862E+00   2.9013712601439368E+00   7.3052821449417049E-01
         1         13   1.4518778507164800E+00   9.6462711741708382E+00   4.3715329035264965E+00   8.3811671947643118E-01
         1         14   2.4300884834352513E-06   5.3039215356450418E-02   2.8067394350178213E-04   1.6541693025921896E-03
         1         15   4.3805855934107564E-04   3.3431366727997386E-01   1.5056637491023487E-02   3.6381498406602590E-02
         1         16   1.8742403996648012E-02   5.3094282134884740E-01   1.9287359264197504E-01   5.3785992354357007E-02
         1         17   5.6391705067135155E-03   2.7103176024192799E-01   3.6199336036120536E-02   2.2235092628611220E-02
         1         18   5.8157340520125522E-01   3.0394483797974066E+00   1.5432926655352674E+00   2.9013849228704902E-01
         1         19   3.5474335876025032E-01   2.8914948266501281E+00   1.2453633098426364E+00   2.6070492382053573E-01
         1         20   1.3050150224953865E-03   2.0977615521049353E-01   1.6466279986318652E-02   1.6175233794254219E-02
         1         21   3.3625763520090814E-02   1.6019727512861448E+00   2.6707302954572526E-01   1.9158906783856428E-01
         1         22   3.5314748293148263E-01   2.5968432133168928E+00   1.2041087980295160E+00   2.3880745648555143E-01
         1         23   5.6279184570511148E-03   4.8263719913200909E-01   4.8674878532957294E-02   4.5579012837321450E-02
         1         24   3.5640890668898983E-01   3.9354254479681789E+00   1.3506519169134916E+00   4.3100694380807969E-01
         1         25   7.1435545388184229E-01   5.4083380133399706E+00   2.3405335217844168E+00   4.7481787957091687E-01
         1         26   6.0302894280955782E-07   2.4282702757490063E-02   1.0392381208153868E-04   6.9514343858439293E-04
         1         27   1.4152015883516988E-04   1.8793440136817721E-01   6.7319944252965166E-03   1.8860146728064606E-02
         1         28   7.6669273315039489E-03   2.8853650966579203E-01   9.6832241039761832E-02   2.8591400835791262E-02
         1         29   1.4586287100215936E-03   1.2827520308122028E-01   1.2535333774723276E-02   1.2196652689168296E-02
         1         30   2.4306078779227119E-01   1.5771292876622454E+00   7.3118666045976355E-01   1.6033491927751306E-01
         1         31   1.5700215118676836E-01   1.4950427209078341E+00   6.2168623298528469E-01   1.3878720233016123E-01
         1         32   8.0322135442977674E-08   9.1020506427165644E-03   1.1758299063219979E-04   7.2850621729108440E-04
         1         33   3.8387499554503460E-05   4.6879099417593433E-02   2.2899299020297070E-03   6.3507919696978174E-03
         1         34   2.5111603817039843E-07   2.6638155845094137E-02   3.5204871838944324E-04   2.1803344919789219E-03
         1         35   7.8176366916082938E-04   1.2144199943350505E-01   1.0237823308897595E-02   1.5551953673898984E-02
         1         36   6.0784771853405629E-03   1.5177813800129991E-01   4.5342256644197804E-02   1.4422755174681633E-02
         1         37   6.5208235096380454E-08   6.8957085587219831E-03   8.4477914517405974E-05   5.1826403434160535E-04
         1         38   5.1003186367566016E-04   3.3817704100212627E-02   5.0495259674331701E-03   4.2413701977289924E-03
         1         39   3.0092380409832575E-01   3.9241027015819827E+00   1.6245850308330121E+00   3.6115017167195557E-01
         1         40   2.9205060411645536E+00   2.0972699454192377E+01   1.0685030237788666E+01   1.8434608066664662E+00
         1         41   5.8304225749625562E+00   3.3157582599900756E+01   1.6937338463410185E+01   2.8416990087236536E+00
         1         42   2.8963706388516774E-01   3.4220973094358569E+00   1.3527222233246401E+00   2.9841578592458634E-01
         1         43   3.3240856510350132E+00   1.9977206504626281E+01   1.0533032366441756E+01   1.8362183066460305E+00
         1         44   5.5968160844972745E+00   2.9479500954936675E+01   1.4663357897716818E+01   2.4340402007751933E+00
         1         45   7.3194532436105672E-02   1.4240027432637063E+00   4.6184059564430718E-01   1.0603619804309938E-01
         1         46   7.4351404260172327E-01   6.1601360099088307E+00   3.0926623459215312E+00   5.2746971733324144E-01
         1         47   1.0304047665725904E+00   9.5490875529313932E+00   4.6615470051220029E+00   8.8228607777747381E-01
         1         48   5.3439780036913555E-02   6.0792049084128386E-01   2.0133541277710790E-01   4.7497199912796259E-02
         1         49   1.0984946263275692E+00   5.3381605458179147E+00   2.9222626179881503E+00   4.9078113758325748E-01
         1         50   9.3741001607568142E-01   6.0472356274080674E+00   2.8114797251218855E+00   5.0873676433244819E-01
         1         51   1.1424085007079182E-01   2.3139492223359586E+00   7.5719953168832033E-01   2.0833570661709583E-01
         1         52   1.4315113742496002E+00   1.3300925195398728E+01   5.8838374866614309E+00   1.2171600869775945E+00
         1         53   3.5503714858105737E+00   2.1312715022502385E+01   1.0871674742056101E+01   1.8799426423890726E+00
         1         54   1.0963309213378970E-01   2.0788696656585590E+00   6.3126459151902947E-01   1.7541529953806104E-01
         1         55   1.6510272306266744E+00   1.2357046870783602E+01   5.7724472752012481E+00   1.1927743223366301E+00
         1         56   3.3307522004182251E+00   1.8663597697385917E+01   9.2207406968320633E+00   1.5761279490996694E+00
         1         57   2.7455727216146104E-02   9.1674320906634155E-01   2.1461170716720621E-01   6.1714021121502906E-02
         1         58   3.6192386693953038E-01   3.8875893126984216E+00   1.7092032560335464E+00   3.4843371038350474E-01
         1         59   5.6557210052590146E-01   6.1563972117346957E+00   2.9617726398537609E+00   5.9044611830216798E-01
         1         60   2.0196364035104716E-02   3.3469617649847838E-01   9.3035775655912298E-02   2.7640180745065839E-02
         1         61   5.5357670454431462E-01   3.1907980705952856E+00   1.5901399654465433E+00   3.0513520444755149E-01
         1         62   5.3781344801473907E-01   3.6339755326587713E+00   1.6575261374157455E+00   3.1383714619102349E-01
         1         63   9.6664268597268675E-05   1.4867672619417913E-01   4.3177785208556420E-03   8.2707901241799234E-03
         1         64   1.2006437712525238E-02   1.1332481089585240E+00   1.2838035367153358E-01   1.3388538744183132E-01
         1         65   2.0772479772511018E-01   1.8626169502984133E+00   8.2255201121385824E-01   1.7849382645365078E-01
         1         66   8.7907438908811975E-05   1.2622839046469150E-01   4.4000149614673457E-03   1.1827043706432264E-02
         1         67   1.3369106385547676E-02   8.7813896596785235E-01   1.1827747851010054E-01   1.1347348778532439E-01
         1         68   1.7657303404092337E-01   1.4295433698727396E+00   6.2121356605669209E-01   1.2933064669650537E-01
         1         69   2.8597998667575309E-03   3.7304172172637867E-01   3.7665097851475426E-02   3.7208167402427196E-02
         1         70   1.5902143209986809E-05   2.6009225424800504E-02   7.2450937404019229E-04   2.4859888979869879E-03
         1         71   4.7171431923273572E-03   1.6025670770457742E-01   2.8821358718588475E-02   1.9416774232856850E-02
         1         72   1.5331295649388408E-02   1.9310943777686740E-01   6.9677412943044442E-02   1.7784064753732315E-02
         2          1   2.4721472942648627E-02   1.5073065774351924E+00   5.1894025713961534E-01   1.2292746613848948E-01
         2          2   2.4966843476303169E-01   2.6917832996745195E+00   1.5515938962961904E+00   2.2894178892035891E-01
         2          3   1.8582961795319244E-03   3.8171243121869747E+00   1.1221679663414206E+00   3.9926224172528085E-01
         2          4   6.9308990079045429E-01   3.9421018903882858E+00   1.9417591382085293E+00   2.7982355416028953E-01
         2          5   5.2213352864915873E-02   5.9786240694290029E+00   2.7894744649522680E+00   6.8818475947171043E-01
         2          6   3.4706330958249576E-01   2.8061894414477742E+00   1.2905107822301898E+00   2.5049917129048904E-01
         2          7   5.6650782795607790E-01   6.0129804050995874E+00   3.4024808580901604E+00   5.3817898895468230E-01
         2          8   8.2160472578002200E-02   2.1591157175155038E+00   9.5893716661004147E-01   2.2068746057755104E-01
         2          9   9.7533565633843480E-02   8.0520717520847240E-01   3.9574121682754421E-01   7.2843087896835634E-02
         2         10   7.5624736998622447E-02   1.2151161903363619E+00   4.2414909548153323E-01   1.1030205700397629E-01
         2         11   3.8590027688988915E-01   3.4170303616374733E+00   1.5389187655267780E+00   2.9839201545750010E-01
         2         12   1.2653139464575366E-01   3.3448693047411142E+00   9.0701446886275106E-01   3.0808232807716252E-01
         2         13   3.5754079396564345E-02   2.3051636092543291E+00   4.5165801949286744E-01   2.0529180913687342E-01
         2         14   1.7360244301899754E+00   9.1860981352526956E+00   5.0318013545245659E+00   7.7006828863188448E-01
         2         15   5.6096556948092302E-01   6.9184291400548386E+00   2.5593433032311834E+00   7.0382259666666958E-01
         2         16   2.7321455653550736E-03   2.6718628880300366E-01   6.8392239083035003E-02   1.8417271845608391E-02
         2         17   1.4998879259624551E-04   2.8869834404308442E-01   3.2421219256901605E-02   2.1462316150937667E-02
         2         18   9.6976148378458242E-03   6.9986551977156553E-01   7.4501947267367571E-02   9.2109247490457000E-02
         2         19   7.5554776729931772E-01   3.8650650491408283E+00   2.1261658860729638E+00   2.9459249679651817E-01
         2         20   2.2984860438624041E-01   2.2399640197541903E+00   8.4832685420611464E-01   2.2013029667841760E-01
         2         21   3.1742242534198488E-02   6.9305314098138393E-01   2.0239450285654340E-01   6.2019223320811959E-02
         2         22   1.6267388613945685E-01   1.8982342788109985E+00   8.1342448996901984E-01   1.7017885772188068E-01
         2         23   4.3623299253776143E-02   1.8524213261728384E+00   4.3372964228967342E-01   1.6475284995752615E-01
         2         24   1.1782155855406862E-02   1.3256780035707432E+00   2.0203673375826020E-01   1.2375770385162231E-01
         2         25   9.5572013219445029E-01   5.1585503300832807E+00   2.7312178298449119E+00   4.5027566865612645E-01
         2         26   2.1346552007948805E-01   3.7560054368796258E+00   1.2309867059977997E+00   3.8895981570570448E-01
         2         27   1.0778454975081308E-03   1.6230009416534466E-01   3.4353839552470775E-02   1.0338804556484340E-02
         2         28   4.1455680376600344E-05   1.3561930079689324E-01   1.3464607540962245E-02   9.4307016558753589E-03
         2         29   2.9811923400491925E-03   3.9674788724187127E-01   3.2946560522656709E-02   5.3575100644579036E-02
         2         30   4.0860996892032608E-01   2.1541090596644543E+00   1.1291055145629398E+00   1.6554701558125592E-01
         2         31   8.7689965003411183E-02   1.1196100344004409E+00   3.9704096379805787E-01   1.1606734505235136E-01
         2         32   2.0029888316796539E-05   1.7556653440553127E-02   1.4233102888664287E-03   1.3598121443903737E-03
         2         33   5.2716716179610746E-06   4.4644993845652417E-02   1.7086280138653978E-03   4.2643079956046579E-03
         2         34   8.8339290835669212E-07   1.2139204575362132E-02   4.1922038284938451E-04   1.5155281653507265E-03
         2         35   1.2653672947005059E+00   8.9337925904902882E+00   4.2637335795708999E+00   5.9362291906692699E-01
         2         36   4.3025897744283652E+00   2.4744209023066571E+01   1.4272525712868205E+01   1.9700222663219151E+00
         2         37   2.9677470818795189E+00   2.5847640450705327E+01   1.1788593731598802E+01   2.3639335745006553E+00
         2         38   4.8673248345854536E-01   6.9220258514917292E+00   2.9410791137038919E+00   5.0416378898015868E-01
         2         39   4.7312413761643519E+00   2.4784350068345699E+01   1.4182436900763136E+01   1.9734981280505293E+00
         2         40   2.7914940844674572E+00   2.2909604188642842E+01   1.0258913931047273E+01   2.0538117984713926E+00
         2         41   5.1976352609600407E-01   3.0581982698648895E+00   1.1910833091075925E+00   2.2566892125976182E-01
         2         42   1.0695804209866875E+00   7.2313250376604037E+00   3.9928775708897235E+00   5.8095727320582324E-01
         2         43   8.4628209088378592E-01   7.5313801441068913E+00   3.3982729265620653E+00   7.1123273080942895E-01
         2         44   7.0763463381880415E-02   1.2969398476188700E+00   3.1793764328087359E-01   1.3617384576811825E-01
         2         45   1.3721123798749537E+00   6.3973513973729199E+00   3.7457022157866304E+00   5.0158792550110110E-01
         2         46   6.3964342968618404E-01   4.7161013997028380E+00   1.9947659320351354E+00   4.2776493844298569E-01
         2         47   8.6532747970285151E-01   6.1240088873304499E+00   2.7402018484921369E+00   4.0552538612845523E-01
         2         48   2.5315105294788682E+00   1.5776758660822487E+01   8.7867531123795093E+00   1.2800885070636867E+00
         2         49   1.5679508239487920E+00   1.6123025100421103E+01   6.9389600266532643E+00   1.5752331036924878E+00
         2         50   2.4475421880204548E-01   4.5715135037651979E+00   1.7778621079614614E+00   3.3311384228682872E-01
         2         51   2.8365798870360606E+00   1.5735394223700631E+01   8.7129345829426814E+00   1.2788947945672131E+00
         2         52   1.4825266957775993E+00   1.4111085036729261E+01   5.9550381055833128E+00   1.3412575984240060E+00
         2         53   2.9486345514961088E-01   2.1632897998459173E+00   7.6894782290828789E-01   1.6439255789853263E-01
         2         54   6.1183454216254696E-01   4.7418024842673727E+00   2.4364672738977449E+00   3.8379810845509604E-01
         2         55   4.2978046698724798E-01   4.7295979558909700E+00   2.0069121315341767E+00   4.7649159304923261E-01
         2         56   3.3379248097225291E-02   8.3272635081969881E-01   1.7274845946125020E-01   8.7956031429209408E-02
         2         57   8.2656009161897048E-01   3.9467471262168639E+00   2.2459243943426777E+00   3.1269124051179731E-01
         2         58   3.1171589063801924E-01   2.7714452296122714E+00   1.1129251102859337E+00   2.6297335909685149E-01
         2         59   2.6592109568248031E-02   5.6825603390221913E-01   2.0877471778793405E-01   4.9135988886466996E-02
         2         60   7.2485536842319745E-02   1.1034806181844534E+00   4.5818934497666303E-01   1.0344323974312900E-01
         2         61   5.9263838221524185E-03   1.2515028539804678E+00   2.4502825958578195E-01   1.1006546541667923E-01
         2         62   3.5994334696395447E-03   3.9125406849266531E-01   8.9107610428087070E-02   3.1854933024728180E-02
         2         63   7.2533340578499653E-02   1.0927078443379801E+00   4.4612155612487853E-01   1.0164232620041405E-01
         2         64   5.4706332551405917E-03   9.8645463183530846E-01   1.9457952454956559E-01   8.6829363320211461E-02
         2         65   1.7435002600794914E-04   5.6940854477051987E-02   3.9265019004702875E-03   5.9979210203388224E-03
         2         66   2.1035187678847361E-02   2.2735828246294021E-01   9.5459655622289877E-02   2.0577872261152416E-02
