begin
lattice         17.007526000         0.000000000         0.000000000
lattice          0.000000000        14.728517000         0.000000000
lattice          0.000000000         0.000000000        13.885701000
atom          -0.004100346        -0.049554341        -0.016880525 O         -0.217594850         0.000000000         0.000008033        -0.000542100        -0.000410159
atom           1.492583556         0.873520660         0.644659612 H          0.109115980         0.000000000         0.000252683         0.000204913         0.000200704
atom          15.503581693         0.881917393         0.626419599 H          0.109022510         0.000000000        -0.000246170         0.000266375         0.000134107
atom           8.498589062         0.043176894         0.025537700 O         -0.218598620         0.000000000         0.000007022         0.000533358         0.000361666
atom           8.491160360        12.981354552         0.599284097 H          0.108512460         0.000000000        -0.000021290        -0.000392627         0.000011916
atom           8.499220060        -0.027896059        12.033864819 H          0.108863030         0.000000000        -0.000013989        -0.000096456        -0.000378365
atom           4.277295961         7.375744190        -0.020977565 O         -0.217668440         0.000000000         0.000481532         0.000277410        -0.000334794
atom           4.228769952         5.619750841         0.645799003 H          0.109194280         0.000000000        -0.000204917        -0.000343797         0.000111773
atom           2.727070736         8.215583168         0.628405228 H          0.109614200         0.000000000        -0.000319730         0.000099148         0.000189655
atom          12.695333412         7.352384758         0.005785717 O         -0.218143300         0.000000000        -0.000450159        -0.000281280         0.000354495
atom          14.242870010         8.239469758         0.596217904 H          0.109580130         0.000000000         0.000294128         0.000216700         0.000038584
atom          12.778339040         7.376230719        12.014619869 H          0.108920890         0.000000000         0.000114545         0.000025595        -0.000401701
atom           4.207316271         2.472274106         1.730280339 O         -0.218226050         0.000000000        -0.000399123         0.000255904        -0.000358453
atom           5.753769376         1.579438121         1.146854142 H          0.109643110         0.000000000         0.000325083        -0.000161344         0.000011977
atom           4.273576735         2.443254491         3.607928163 H          0.108727520         0.000000000         0.000071433        -0.000054918         0.000382490
atom          12.785533813         2.440390743         1.750614490 O         -0.218082980         0.000000000         0.000427353        -0.000251532         0.000427749
atom          11.239414149         1.594814897         1.097275480 H          0.109329000         0.000000000        -0.000279583        -0.000112864        -0.000214875
atom          12.723757442         4.198100588         1.090903929 H          0.109228610         0.000000000        -0.000075451         0.000366986        -0.000205847
atom          -0.018578236         9.770351711         1.708133696 O         -0.218614930         0.000000000        -0.000025913        -0.000553474        -0.000376021
atom          -0.010260267        11.560893239         1.136272074 H          0.108730400         0.000000000        -0.000011992         0.000402432        -0.000005430
atom          -0.000506333         9.839684113         3.585501292 H          0.108889010         0.000000000         0.000011475         0.000114173         0.000376410
atom           8.490139095         9.870825493         1.754768788 O         -0.217517160         0.000000000        -0.000010864         0.000508765         0.000409113
atom           6.989329978         8.936839686         1.118083555 H          0.109024080         0.000000000        -0.000232184        -0.000247149        -0.000123829
atom           9.985789204         8.951322868         1.084417558 H          0.108989940         0.000000000         0.000239204        -0.000184120        -0.000209689
atom           4.288957423         2.432358217         6.928761652 O         -0.217798740         0.000000000         0.000443754        -0.000261449        -0.000368781
atom           2.737000282         1.601557704         7.586976741 H          0.108802260         0.000000000        -0.000360352        -0.000072537         0.000185428
atom           4.247153698         4.190556631         7.588952827 H          0.109226820         0.000000000        -0.000080628         0.000340162         0.000172008
atom          12.808113128         2.466327516         6.957766376 O         -0.218477540         0.000000000         0.000421514         0.000253588         0.000350228
atom          12.739837385         2.444055357         5.080352255 H          0.108798250         0.000000000        -0.000095847        -0.000043219        -0.000411287
atom          11.251425871         1.582285239         7.530024463 H          0.108724760         0.000000000        -0.000349849        -0.000160351         0.000013455
atom          -0.018981712         9.794220896         6.918418993 O         -0.218244470         0.000000000        -0.000412133        -0.000289305        -0.000426974
atom           0.021376826        11.550038275         7.586013604 H          0.109101380         0.000000000         0.000065819         0.000348520         0.000197006
atom           1.535285694         8.966158105         7.574394511 H          0.108722530         0.000000000         0.000336217        -0.000062070         0.000206348
atom           8.476820665         9.842246997         6.962224750 O         -0.218551690         0.000000000        -0.000418584         0.000260658         0.000373863
atom           8.521778891         9.802109879         5.084374744 H          0.108797750         0.000000000         0.000085474        -0.000072318        -0.000398462
atom          10.030587691         8.946969714         7.524545788 H          0.108642070         0.000000000         0.000361786        -0.000147196         0.000000028
atom           0.046534238        -0.025883841         8.663681042 O         -0.217673480         0.000000000         0.000458051        -0.000226781        -0.000332008
atom          -0.017389636         0.017185943        10.541062698 H          0.108946290         0.000000000        -0.000088141         0.000070357         0.000402237
atom          15.504556206         0.860730088         8.077796179 H          0.109253580         0.000000000        -0.000346089         0.000090970        -0.000075146
atom           8.556479135         0.021321986         8.699537270 O         -0.218050300         0.000000000         0.000529164         0.000261474         0.000378078
atom           6.996017529         0.851655529         8.063549629 H          0.109178810         0.000000000        -0.000337758         0.000082729        -0.000146153
atom           8.511906490        12.993993814         8.030843348 H          0.109091960         0.000000000        -0.000178396        -0.000310847        -0.000146434
atom           4.224625405         7.346922449         8.666531297 O         -0.217849540         0.000000000        -0.000453922        -0.000196871        -0.000334836
atom           4.271741036         7.375447182        10.544801653 H          0.108760200         0.000000000         0.000097524         0.000020242         0.000342183
atom           5.779358307         8.232894287         8.095284251 H          0.109369490         0.000000000         0.000364349         0.000102075        -0.000043092
atom          12.726280491         7.382605521         8.685491787 O         -0.217769180         0.000000000        -0.000520148         0.000253221         0.000338259
atom          12.777012698         5.623450376         8.027560138 H          0.109187060         0.000000000         0.000194422        -0.000369322        -0.000124179
atom          14.284045420         8.215319136         8.044185475 H          0.109078480         0.000000000         0.000342628         0.000078184        -0.000143243
energy       -1225.22167939
charge           0.00000000
end
begin
lattice         10.193231000         0.000000000         0.000000000
lattice          0.000000000        10.193231000         0.000000000
lattice          0.000000000         0.000000000        14.822313000
atom           0.000017933         0.000027401         3.453551893 O         -0.252715910         0.000000000         0.000000034        -0.000000109         0.000640537
atom          -0.000020768         5.096588308         7.158895261 O         -0.252696800         0.000000000         0.000000061        -0.000000061         0.000641232
atom           5.096629787         0.000010148         7.663194511 O         -0.252715550         0.000000000         0.000000044        -0.000000026        -0.000642043
atom           5.096607470         5.096599098         3.957832152 O         -0.252697890         0.000000000         0.000000014        -0.000000042        -0.000641778
atom           5.096643412         5.096640389        10.864714386 O         -0.252716220         0.000000000         0.000000080        -0.000000061         0.000642945
atom           5.096596830        10.193208382        14.570062138 O         -0.252697130         0.000000000         0.000000044        -0.000000070         0.000642055
atom          10.193253244         5.096617882        15.074345742 O         -0.252716020         0.000000000         0.000000091         0.000000045        -0.000641009
atom          10.193235159        10.193207361        11.368989467 O         -0.252697330         0.000000000         0.000000009        -0.000000095        -0.000640677
atom           0.000002173         1.454867630         4.586252970 H          0.126351010         0.000000000        -0.000000012        -0.000708770        -0.000293128
atom           5.096620395         3.641790844        11.997401725 H          0.126352220         0.000000000         0.000000005         0.000708862        -0.000293184
atom          -1.454857747         5.096612950         8.291599626 H          0.126361380         0.000000000         0.000708956         0.000000015        -0.000293102
atom           6.551442199         0.000001153        15.702754277 H          0.126362100         0.000000000        -0.000709001        -0.000000007        -0.000293136
atom           5.096620187         1.454848317         6.530491488 H          0.126351680         0.000000000        -0.000000039        -0.000708760         0.000293025
atom           0.000010923         3.641766806        -0.880653488 H          0.126351320         0.000000000        -0.000000051         0.000707973         0.000292893
atom           6.551456523         5.096611098         2.825144473 H          0.126361860         0.000000000        -0.000709168         0.000000050         0.000293044
atom          -1.454834767        -0.000004346        -4.586025296 H          0.126361330         0.000000000         0.000708849         0.000000029         0.000293002
atom           5.096620641         6.551479729        11.997416408 H          0.126351220         0.000000000         0.000000006        -0.000708839        -0.000293172
atom          10.193233175         8.738409500        19.408553163 H          0.126352220         0.000000000        -0.000000012         0.000708757        -0.000293171
atom           3.641756318        10.193230964        15.702761930 H          0.126361300         0.000000000         0.000709053        -0.000000001        -0.000293136
atom          11.648058437         5.096612780        23.113897174 H          0.126362430         0.000000000        -0.000709003         0.000000016        -0.000293122
atom          10.193240526         6.551455049        13.941641527 H          0.126350820         0.000000000        -0.000000044        -0.000707830         0.000292873
atom           5.096620358         8.738391189         6.530507550 H          0.126352240         0.000000000        -0.000000039         0.000708827         0.000293012
atom          11.648082777        10.193225559        10.236299445 H          0.126361470         0.000000000        -0.000708934         0.000000035         0.000293006
atom           3.641770321         5.096611098         2.825128353 H          0.126361180         0.000000000         0.000709077         0.000000051         0.000293043
energy        -612.56882896
charge           0.00000000
end
begin
lattice          7.193696000         0.000000000         0.000000000
lattice          0.000000000         7.193696000         0.000000000
lattice          0.000000000         0.000000000        10.460593000
atom           0.000002249         0.000000416         2.559625423 O         -0.159724280         0.000000000        -0.000000475         0.000000415        -0.001128123
atom           0.000002400         3.596850325         5.174721429 O         -0.159720950         0.000000000        -0.000000402        -0.000000434        -0.001112711
atom           3.596848076         0.000000567         5.285862564 O         -0.159721270         0.000000000         0.000000201         0.000000249         0.001115822
atom           3.596848492         3.596848416         2.670673905 O         -0.159723720         0.000000000         0.000000476         0.000000154         0.001126229
atom           3.596848473         3.596850627         7.789890151 O         -0.159721940         0.000000000         0.000000246        -0.000000507        -0.001120139
atom           3.596846716         7.193697456        10.405067566 O         -0.159723340         0.000000000         0.000001156        -0.000000091        -0.001123199
atom           7.193698212         3.596846753        10.516115877 O         -0.159724100         0.000000000        -0.000000413         0.000000914         0.001125644
atom           7.193697059         7.193696511         7.901013106 O         -0.159721430         0.000000000        -0.000000684        -0.000000177         0.001116573
atom           0.000005083         1.586983098         3.737120717 H          0.079837390         0.000000000        -0.000000298         0.000863871         0.000406712
atom           3.596845941         2.009860934         8.967403623 H          0.079838830         0.000000000         0.000000152        -0.000861094         0.000406518
atom          -1.586984874         3.596850457         6.352234882 H          0.079838860         0.000000000        -0.000861370        -0.000000032         0.000406533
atom           5.183836994        -0.000002268        11.582573914 H          0.079838500         0.000000000         0.000861892         0.000000257         0.000405995
atom           3.596846489         1.586989240         4.108345822 H          0.079839010         0.000000000         0.000000184         0.000860850        -0.000406682
atom           0.000001172         2.009864147        -1.121972687 H          0.079837390         0.000000000        -0.000000005        -0.000863727        -0.000406941
atom           5.183836976         3.596849456         1.493166291 H          0.079838370         0.000000000         0.000862075        -0.000000121        -0.000405717
atom          -1.586985290         0.000003590        -3.737088553 H          0.079838520         0.000000000        -0.000862061        -0.000000143        -0.000406813
atom           3.596845941         5.183839394         8.967402338 H          0.079838720         0.000000000         0.000000130         0.000861322         0.000406693
atom           7.193697040         5.606716380        14.197714970 H          0.079837200         0.000000000        -0.000000006        -0.000864154         0.000406893
atom           2.009860953         7.193696795        11.582575747 H          0.079838230         0.000000000        -0.000862391        -0.000000027         0.000406219
atom           8.780684182         3.596850457        16.812828966 H          0.079838730         0.000000000         0.000861506        -0.000000003         0.000406640
atom           7.193698477         5.183830267         9.338617976 H          0.079837550         0.000000000        -0.000000124         0.000863415        -0.000406607
atom           3.596846489         5.606706478         4.108346729 H          0.079839010         0.000000000         0.000000150        -0.000860847        -0.000406720
atom           8.780681726         7.193697343         6.723505265 H          0.079838380         0.000000000         0.000862320        -0.000000014        -0.000406999
atom           2.009861709         3.596849475         1.493165270 H          0.079838230         0.000000000        -0.000862257        -0.000000068        -0.000405843
energy        -612.23663864
charge           0.00000000
end
begin
lattice         12.106573000         0.000000000         0.000000000
lattice          0.021167000        12.125988000         0.000000000
lattice          0.019638000        -0.019674000        11.251500000
atom           3.049368114         2.972620711         2.697538401 O         -0.228230030         0.000000000        -0.000054294         0.000066966        -0.001028891
atom          -3.049368001        -2.972620654        -2.697538401 O         -0.228230030         0.000000000         0.000054294        -0.000066965         0.001028889
atom           2.962619166         6.256516047         6.943407293 O         -0.227799880         0.000000000        -0.000462232        -0.000277336        -0.000213782
atom          -2.962619090        -6.256516066        -6.943407312 O         -0.227799880         0.000000000         0.000462232         0.000277330         0.000213784
atom           3.104695777        11.699914597         7.042118113 O         -0.227926340         0.000000000        -0.000051059        -0.000621538        -0.000544941
atom          -3.104695172       -11.699914710        -7.042118207 O         -0.227926350         0.000000000         0.000051032         0.000621553         0.000544956
atom          11.774867800         2.946373872         9.718145215 O         -0.229385860         0.000000000        -0.000556451        -0.000303544        -0.000159753
atom         -11.774867933        -2.946373683        -9.718145063 O         -0.229385840         0.000000000         0.000556453         0.000303539         0.000159748
atom           6.347299126         3.030020873         9.612681742 O         -0.230557200         0.000000000        -0.000324922         0.000061905        -0.000564394
atom          -6.347299088        -3.030020892        -9.612681761 O         -0.230557210         0.000000000         0.000324922        -0.000061905         0.000564394
atom           5.600032457         3.021683912         0.066996966 H          0.112912000         0.000000000        -0.000007730         0.000022260         0.000112678
atom          -5.600032457        -3.021683874        -0.066996985 H          0.112912000         0.000000000         0.000007729        -0.000022260        -0.000112678
atom           0.558660885         2.985729759         0.090534126 H          0.113338480         0.000000000         0.000217766         0.000084676         0.000056941
atom          -0.558660979        -2.985729570        -0.090533994 H          0.113338480         0.000000000        -0.000217765        -0.000084677        -0.000056940
atom           2.997416070         4.397371343         3.896148037 H          0.113014440         0.000000000        -0.000008899        -0.000095923         0.000540765
atom          -2.997416013        -4.397371324        -3.896147980 H          0.113014440         0.000000000         0.000008900         0.000095925        -0.000540764
atom           3.030732695         1.510472326         3.842394838 H          0.116571270         0.000000000        -0.000032104        -0.000008001         0.000673415
atom          -3.030732468        -1.510472288        -3.842394876 H          0.116571260         0.000000000         0.000032105         0.000007999        -0.000673415
atom           3.091493924         8.111173067         7.021008418 H          0.113528330         0.000000000         0.000130483         0.000343096        -0.000034376
atom          -3.091493678        -8.111173105        -7.021008437 H          0.113528330         0.000000000        -0.000130483        -0.000343091         0.000034375
atom           8.198036496         3.034209054         9.804972077 H          0.112585120         0.000000000         0.000321385        -0.000055258         0.000254018
atom          -8.198036458        -3.034209035        -9.804972058 H          0.112585120         0.000000000        -0.000321384         0.000055259        -0.000254018
atom           4.442347502         5.579979346         7.837953158 H          0.113840740         0.000000000        -0.000122442        -0.000077888         0.000205995
atom          -4.442347483        -5.579979479        -7.837953139 H          0.113840740         0.000000000         0.000122443         0.000077888        -0.000205995
atom           4.519417123         0.449041792         7.841201578 H          0.115056540         0.000000000        -0.000112762         0.000262138         0.000213617
atom          -4.519416707        -0.449041678        -7.841201559 H          0.115056540         0.000000000         0.000112754        -0.000262140        -0.000213616
atom           1.638530174         0.358330636         7.910095470 H          0.117127170         0.000000000        -0.000100627         0.000554984         0.000276627
atom          -1.638529834        -0.358331014        -7.910095678 H          0.117127140         0.000000000         0.000100654        -0.000554993        -0.000276639
atom           0.464151171         4.330709917         8.763445157 H          0.115947020         0.000000000         0.000495165        -0.000054981        -0.000053525
atom          -0.464151171        -4.330709898        -8.763445119 H          0.115947030         0.000000000        -0.000495165         0.000054983         0.000053524
energy        -765.74711547
charge           0.00000000
end
begin
lattice         12.794558000         0.000000000         0.000000000
lattice          0.000000000        12.794558000         0.000000000
lattice          0.000000000         0.000000000        12.832808000
atom           1.427803929         3.969000920         3.551051916 O         -0.216820500         0.000000000         0.041038910        -0.032181659         0.026566193
atom          -1.449254219        -3.877439874        10.004735656 O         -0.218762260         0.000000000        -0.027764499        -0.002427347         0.015599294
atom           2.485707051         7.828824760         6.821842219 O         -0.229692240         0.000000000         0.000390370        -0.005445479        -0.007015512
atom          10.295092190         4.932209828        13.169345984 O         -0.220534070         0.000000000         0.006852406        -0.022133641         0.011761805
atom           4.920087230        10.310100401        -0.330201426 O         -0.217913400         0.000000000        -0.000297554         0.014666656        -0.002056107
atom           7.894260333         2.503474263         5.997977992 O         -0.224455440         0.000000000        -0.025527477        -0.030760843         0.017440921
atom           3.961655552         1.456204635        -3.627929785 O         -0.216496530         0.000000000        -0.021058148        -0.005624113         0.002564918
atom          -3.965665552        -1.448749662         2.857985135 O         -0.215125380         0.000000000         0.021611535        -0.019266147        -0.012844886
atom           5.124045452         5.060792514        -0.019080572 O         -0.225175340         0.000000000         0.004094230         0.011292877         0.013170515
atom          -5.122087695        -5.126889491         6.423996130 O         -0.225741120         0.000000000         0.016842669         0.015339541         0.006536883
atom           1.337614825        11.526162324         3.196580728 O         -0.222397270         0.000000000        -0.014969237         0.000540141         0.017358282
atom          11.521194232         1.259504854         9.606577761 O         -0.217006860         0.000000000         0.005881130         0.003737364         0.016382178
atom          -0.070380988         4.328905073         2.658966660 H          0.107355800         0.000000000        -0.036585436         0.006429789        -0.021967079
atom           1.495482608         2.041504071         3.745899765 H          0.118605950         0.000000000        -0.002927386         0.023371416        -0.004280879
atom           3.949623661         4.654896188         1.383057087 H          0.109840460         0.000000000        -0.001556042        -0.000482118        -0.002432313
atom           0.053401792        -4.264667588         9.088429769 H          0.109335870         0.000000000         0.026908312        -0.007092796        -0.016206070
atom          -1.458064126        -2.031764419        10.175194689 H          0.110754210         0.000000000        -0.000506966         0.007729907        -0.000792821
atom          -3.867991239        -4.640993467         7.823233058 H          0.109869890         0.000000000        -0.014123591        -0.005123410        -0.016929794
atom           2.069300064         6.276612551         5.806440945 H          0.108151500         0.000000000         0.004554184         0.008422473         0.006343862
atom           4.371206610         7.876317376         6.930832217 H          0.107156380         0.000000000        -0.006030851        -0.001844518        -0.001409781
atom           1.696162154        10.262815655         4.557034792 H          0.111475130         0.000000000         0.001758034         0.004032309        -0.002984304
atom          10.693953063         6.481782088        12.300561060 H          0.112286260         0.000000000         0.000018423         0.017235573        -0.010858048
atom           8.458135936         4.856023599        13.403148663 H          0.112894990         0.000000000        -0.006692167         0.003774067        -0.003471390
atom          11.070564291         2.472724627        10.992703765 H          0.112233480         0.000000000         0.002308774        -0.003637555        -0.005235777
atom           6.516742035        10.727550517         0.549927529 H          0.112260070         0.000000000        -0.000687625        -0.000512258         0.001827738
atom           4.927939045         8.481500519        -0.504447472 H          0.112099210         0.000000000         0.000090508        -0.014037479        -0.001243623
atom           2.484072437        11.077223689         1.832755392 H          0.106582110         0.000000000         0.011948169        -0.004355789        -0.011045833
atom           6.258777309         2.115711756         6.980906200 H          0.112490680         0.000000000         0.021656958         0.000472805        -0.012039132
atom           7.844908225         4.313585058         5.917093902 H          0.102891030         0.000000000         0.004103934         0.027955691        -0.003549510
atom          10.314896528         1.681053787         8.273828983 H          0.109456940         0.000000000        -0.007405983         0.003189727        -0.010557522
atom           4.291388326        -0.129514321        -2.671030676 H          0.111331010         0.000000000         0.003091351         0.003729266        -0.001744699
atom           2.041033529         1.471413157        -3.724952143 H          0.112865220         0.000000000         0.017299014         0.002145942        -0.001547115
atom           4.652314821         3.921608460        -1.382854886 H          0.106930550         0.000000000        -0.003249006        -0.010355721        -0.009620165
atom          -4.311472343         0.116955196         3.740943012 H          0.109377380         0.000000000        -0.002525307         0.015277112         0.009861718
atom          -2.060917236        -1.530332951         2.686981861 H          0.116980780         0.000000000        -0.016441660         0.003377093         0.002587769
atom          -4.713610002        -3.905749872         5.011206080 H          0.106963850         0.000000000        -0.002099973        -0.007438875         0.011830295
energy        -918.89676991
charge           0.00000000
end
begin
lattice          7.457956000         0.000000000         0.000000000
lattice          0.000000000         7.457956000         0.000000000
lattice          0.000000000         0.000000000        10.844865000
atom           0.009208639         0.033480291         2.615047517 O         -0.167722410         0.000000000        -0.003391269        -0.018362512        -0.002328664
atom           0.043407026         3.721826534         5.335823363 O         -0.175553880         0.000000000        -0.027700206         0.005775020         0.003603427
atom           3.702617461         0.034321220         5.538931208 O         -0.173871890         0.000000000        -0.000770735        -0.014229521        -0.023229282
atom           3.744677112         3.738304953         2.811577223 O         -0.156413220         0.000000000         0.009216957        -0.000432961        -0.005756602
atom           3.759477453         3.699801768         8.033877134 O         -0.163875100         0.000000000        -0.003062050         0.021977183         0.007490585