################################################################################
# Symmetry function scaling data.
################################################################################
# Col  Name     Description
################################################################################
# 1    e_index  Element index.
# 2    sf_index Symmetry function index.
# 3    sf_min   Symmetry function minimum.
# 4    sf_max   Symmetry function maximum.
# 5    sf_mean  Symmetry function mean.
# 6    sf_sigma Symmetry function sigma.
#########################################################################################################################
#        1          2                        3                        4                        5                        6
#  e_index   sf_index                   sf_min                   sf_max                  sf_mean                 sf_sigma
#########################################################################################################################
         1          1   6.0482081299735286E+00   4.9424399973318700E+01   1.2004861964900426E+01   3.4694433155829425E+00
         1          2   3.5990475707839158E+00   2.5207921942769381E+01   6.5022960668764060E+00   1.7362357970741045E+00
         1          3   3.7125760118238498E+00   3.5237538234960248E+01   8.3494504775535798E+00   2.5148731554352359E+00
         1          4   2.3416489603169759E+00   1.8128042323356443E+01   4.6729052937771502E+00   1.2610558256581534E+00
         1          5   1.9323979862056351E+00   2.2074389397281646E+01   4.9866572737243136E+00   1.6160881780713188E+00
         1          6   1.3348924656799621E+00   1.1545044334303293E+01   2.9849228354884207E+00   8.1214912601244760E-01
         1          7   7.2094431809718973E-01   1.0061172366127400E+01   2.0816372395506488E+00   7.5842427710304283E-01
         1          8   8.7279958649499023E-01   5.5683617857135221E+00   1.5693747507797413E+00   3.7523602951925605E-01
         1          9   9.9111475073490540E-01   7.0866442428598067E+00   1.8713666199665173E+00   4.9420878814429753E-01
         1         10   9.8282218900252827E-01   1.4960426155518395E+01   3.1684403627379134E+00   1.1652412061141553E+00
         1         11   6.3271922670632419E-01   1.9490263089128819E+00   9.7354040923834928E-01   1.1251090161831805E-01
         1         12   4.8267749172006602E-01   8.5355326467099495E+00   1.4098796853719480E+00   6.5333624470038920E-01
         1         13   2.6838024058271692E-01   1.3795592670379315E+00   7.2210472299373674E-01   5.9319513727681662E-02
         1         14   3.3240152480088749E-02   4.8174026127549929E+00   6.8369766630071116E-01   2.7266787945847282E-01
         1         15   0.0000000000000000E+00   8.8071896681798789E-01   3.5207579094972324E-01   8.0759978191335596E-02
         1         16  -7.5005354397636135E-16   7.9605096442185153E-01   3.2483502480465554E-02   4.8086687970131596E-02
         1         17  -7.4958563648023918E-18   8.8230638993502114E-03   4.1385308142608485E-06   7.1472309122003896E-05
         1         18   2.1251708032406787E-02   7.9680731892060885E-01   1.6408260030030941E-01   4.1550481213230885E-02
         1         19   7.9331864108303594E-04   1.3015044484262772E-01   1.2110509593175011E-02   6.2596212548785756E-03
         1         20   1.4419766999109176E-01   2.9959477755945603E+00   3.8870582473906690E-01   1.6219258561181743E-01
         1         21   0.0000000000000000E+00   2.1923163638088472E-01   9.5125799226101625E-04   9.4597752164906224E-03
         1         22   3.2003713564385033E-03   7.2047158309390846E-01   3.3283544665426892E-02   3.6549286634831896E-02
         1         23   0.0000000000000000E+00   2.8670878032034341E-01   3.6633900712776829E-03   1.3294819487577207E-02
         1         24   3.6846900453598386E-01   9.5253780218201296E+00   9.4941529138900538E-01   5.9926665203550433E-01
         1         25   2.3690391651447601E-07   1.3470163336421623E+00   4.4346691267074072E-02   8.3310099665921358E-02
         1         26   2.1159577072835346E-03   4.1385429059116721E+00   9.9971320240697312E-02   2.5822280472451176E-01
         1         27   2.0649999511406401E-06   1.3262054357823791E+00   1.4474910362252164E-01   1.0127612613004705E-01
         1         28   2.2970541297460501E+00   2.0258388791857340E+02   1.2207473419451397E+01   1.3937883062779870E+01
         1         29   5.4755251850009345E-01   5.2940807321384170E+01   3.2514914562804895E+00   3.6868278034880637E+00
         2          1   7.1327594649487871E+00   5.0415843944922237E+01   1.3004592133752800E+01   3.4718162429566517E+00
         2          2   2.6649143506253798E+00   2.4162902219798340E+01   5.4771315706942998E+00   1.7392965075702362E+00
         2          3   4.9665373548200353E+00   3.6256084968009205E+01   9.3458105875543094E+00   2.5174699998303049E+00
         2          4   1.5409008578963042E+00   1.7153722881582151E+01   3.6298779001381809E+00   1.2653397767056536E+00
         2          5   3.1769329490020088E+00   2.3090089337507951E+01   5.9698456709768353E+00   1.6140212405103467E+00
         2          6   6.2992047998600864E-01   1.0464157854286235E+01   1.9295978595442482E+00   8.0637369781221224E-01
         2          7   1.8089961393496283E+00   1.1102417343309897E+01   3.1387495015594862E+00   7.3495110679998377E-01
         2          8   1.0496910853271138E-02   4.6423336165467388E+00   4.7323417191588613E-01   3.7240695404929397E-01
         2          9   2.0037964061178002E+00   1.4131714711784168E+01   3.7427332399330369E+00   9.6756633774863787E-01
         2         10   1.4437997510065479E+00   3.7900512265855588E+00   1.9470808184766966E+00   1.8310664898807985E-01
         2         11   6.9773671130561332E-01   2.6780387326447714E+00   1.4442094459874746E+00   9.9630878803327078E-02
         2         12   7.1570875211456697E-01   1.6294140399669697E+01   3.4284434583552672E+00   1.4079642086375919E+00
         2         13   0.0000000000000000E+00   1.4753209775556084E+00   7.0415158189944538E-01   1.2076862696981748E-01
         2         14   1.0064563592570427E-01   1.3873651534418311E+01   2.3911067880599068E+00   1.2950538806039722E+00
         2         15   0.0000000000000000E+00   1.2883268605124288E+01   1.3494527974711785E+00   1.1963549552054975E+00
         2         16   0.0000000000000000E+00   1.1949583641196320E+01   4.0020075257779181E-01   9.6238667341729156E-01
         2         17   6.0856833505495806E-08   1.5775469827292327E-01   2.4668244275711366E-02   1.0989605061925608E-02
         2         18   1.8088931110938302E-07   1.7846193850890479E-01   4.5282643385915082E-02   1.2253931908003337E-02
         2         19   2.5959030221901009E-02   2.2206061540388644E+00   1.5633185306213676E-01   1.2042011430818285E-01
         2         20   0.0000000000000000E+00   1.5540020703696764E+00   1.7414588941862031E-02   7.8581504660709622E-02
         2         21  -4.9128703288471946E-21   6.0623506437361210E-02   1.5684945044262810E-04   2.1582491798738416E-03
         2         22   9.9437795390111244E-02   1.5027814743140830E+00   2.6565751634235651E-01   8.2914273718908124E-02
         2         23   0.0000000000000000E+00   2.2951098688666685E-01   1.0437350481204558E-03   1.0500514653223677E-02
         2         24  -1.5843370320022317E-21   1.6921754783252595E-02   4.2564284343350170E-05   5.8593072881222761E-04
         2         25   1.6606174974823213E-02   7.6593846482248154E+00   2.5065692064442252E-01   4.9180093852201978E-01
         2         26   1.0042975805521454E-01   2.0938641636578086E+00   4.0502153300816884E-01   1.3952638471867418E-01
         2         27   5.8434290387203797E-02   2.2187854621995907E+01   1.0315376765243338E+00   1.4897206946685415E+00
         2         28   0.0000000000000000E+00   3.1161179124145870E+00   3.3135431654439745E-02   1.9244060592446441E-01
         2         29   7.6820564452075501E-04   2.5248564831765017E+00   8.2123483291192068E-02   1.4706410680164286E-01
         2         30   0.0000000000000000E+00   2.3012607661062906E-01   1.6373205368611584E-03   1.1152864766911491E-02
         2         31   4.1257028822401658E+00   2.1182201480431570E+02   1.4684166214894590E+01   1.4535772618352169E+01
         2         32   2.1549622039029264E+00   1.9475151533395899E+02   1.0253369551843758E+01   1.3367737679941349E+01
         2         33   2.3752084165409226E-01   4.4961118416189414E+01   1.8355625365563373E+00   3.0740482789859036E+00
