begin
comment source_file_name=OUTCAR_4_1
lattice 15.415349658 0.000000000 0.000000000
lattice 0.000000000 12.016005204 0.000000000
lattice -6.055885795 0.000000000 12.226281044
atom 9.66279 1.04561 10.73808 S 0.0 0.0 0.107416 0.024235 -0.891279
atom -3.16184 6.79866 8.04560 S 0.0 0.0 0.066538 0.139566 0.120509
atom -0.30404 11.04333 1.97659 S 0.0 0.0 -0.953672 -0.464533 -1.796811
atom 12.83426 5.06839 4.33902 S 0.0 0.0 0.393296 -0.326470 -0.518344
atom 12.39515 0.83117 4.16637 S 0.0 0.0 -0.063080 -0.611946 0.506821
atom -0.04295 7.13059 1.93130 S 0.0 0.0 -0.643788 -0.077636 0.315228
atom -3.25380 10.86483 8.16358 S 0.0 0.0 0.302005 0.898190 -0.193786
atom 9.41762 5.14521 10.58660 S 0.0 0.0 -0.644394 -0.340890 -0.050007
atom 9.00831 1.11279 6.18474 S 0.0 0.0 0.511148 0.550276 -0.454197
atom 3.34802 6.99932 0.09625 S 0.0 0.0 0.108918 0.284724 0.514152
atom 0.30069 11.03010 5.97943 S 0.0 0.0 0.216866 -0.247468 0.308978
atom 12.12524 5.04060 0.14613 S 0.0 0.0 0.501229 -0.426423 -0.428415
atom 6.18973 0.76543 12.21862 S 0.0 0.0 0.711680 -0.222174 -0.534560
atom 0.27700 6.96838 5.89276 S 0.0 0.0 0.301012 0.404099 0.020448
atom -2.83579 11.33619 12.07566 S 0.0 0.0 -0.366454 -1.013699 0.180780
atom 9.11071 5.30752 5.88412 S 0.0 0.0 0.521382 -0.161316 1.257161
atom 3.29671 1.11468 7.49721 S 0.0 0.0 0.423783 0.469883 0.109794
atom 3.12703 6.91177 10.90503 S 0.0 0.0 -0.330671 0.236197 -0.223073
atom 6.12068 10.97358 4.59954 S 0.0 0.0 0.157883 -0.563474 0.377419
atom 6.40437 4.95096 1.33698 S 0.0 0.0 -0.271097 0.026027 -0.062192
atom 6.26122 0.72292 1.03040 S 0.0 0.0 0.479811 0.556269 0.374940
atom 6.11755 6.85613 4.84907 S 0.0 0.0 -0.163743 0.501150 0.586061
atom 3.26768 11.19922 10.85073 S 0.0 0.0 -0.977102 0.340434 0.160795
atom 3.52987 5.32717 7.24188 S 0.0 0.0 -0.660281 -0.466761 -0.537193
atom -0.16538 0.79379 9.67493 S 0.0 0.0 0.082621 0.738076 -0.305641
atom 6.38897 6.71555 8.70905 S 0.0 0.0 0.714567 0.858927 -0.006896
atom 9.21963 11.13097 2.41939 S 0.0 0.0 0.578520 0.128482 0.160710
atom 2.69797 5.15168 3.47535 S 0.0 0.0 0.444296 -0.868870 -0.367079
atom 2.57642 0.90122 3.58188 S 0.0 0.0 0.258623 0.391067 -0.413657
atom 9.93715 6.97306 2.74299 S 0.0 0.0 0.641907 0.681899 -0.621142
atom 6.98678 11.02130 8.74051 S 0.0 0.0 -0.283456 -0.455182 0.418023
atom -0.27493 5.08709 9.39966 S 0.0 0.0 -0.364478 0.475103 0.470787
atom 6.51424 2.93256 8.87090 S 0.0 0.0 0.248611 -0.532822 0.261379
atom -0.07028 9.08780 9.47600 S 0.0 0.0 0.334238 -1.001614 -0.353571
atom 3.02649 8.97677 3.38093 S 0.0 0.0 0.257971 0.378857 -0.128484
atom 9.22001 3.23692 3.10270 S 0.0 0.0 0.394135 -0.561144 -0.530672
atom 5.74428 2.95266 4.87537 S 0.0 0.0 0.504185 -0.767518 0.098132
atom 6.59397 8.58770 1.02620 S 0.0 0.0 -0.052306 0.889508 0.134244
atom 3.55928 9.31404 7.15633 S 0.0 0.0 0.007547 0.236500 0.509320
atom 2.96180 3.18689 11.02470 S 0.0 0.0 0.388499 0.335359 -0.153235
atom 0.00319 2.81986 5.84202 S 0.0 0.0 0.197651 -0.410017 -0.474082
atom 12.07390 8.62516 0.18008 S 0.0 0.0 0.955619 0.478197 -0.371759
atom 9.29009 9.21675 6.39687 S 0.0 0.0 -0.053343 -0.438911 -0.538072
atom -2.79943 3.30466 11.86546 S 0.0 0.0 0.397348 0.490476 0.572317
atom 0.22927 2.73487 1.72492 S 0.0 0.0 -0.311377 0.041312 -0.093182
atom 12.80848 9.20714 4.54446 S 0.0 0.0 -1.078226 -0.482916 -0.754490
atom 9.57560 8.83412 10.64965 S 0.0 0.0 -0.180223 0.207007 -0.965804
atom -3.02133 3.13287 7.77891 S 0.0 0.0 -0.431739 0.229304 -0.188167
atom 11.52491 2.71697 3.53948 Cu 0.0 0.0 -0.524195 0.593531 -0.018888
atom 0.94130 9.18527 2.48932 Cu 0.0 0.0 0.344344 -0.016827 -0.038025
atom -2.17737 8.90566 8.67171 Cu 0.0 0.0 -0.080113 -0.460384 -0.097485
atom 8.60937 2.99411 9.87382 Cu 0.0 0.0 0.242483 0.166370 -0.096114
atom 5.78704 0.81660 8.10398 Cu 0.0 0.0 -0.650869 0.037090 0.138420
atom 1.13645 6.89390 9.81986 Cu 0.0 0.0 -0.922068 -0.415802 0.004088
atom 3.98661 11.22749 4.05170 Cu 0.0 0.0 -0.169993 0.048173 -0.094445
atom 8.48776 5.35715 2.31898 Cu 0.0 0.0 -0.235778 -0.425782 -0.273045
atom 8.46457 1.29601 1.87017 Cu 0.0 0.0 -0.176692 0.115597 0.370769
atom 4.03103 6.96064 3.88549 Cu 0.0 0.0 0.138133 0.336666 0.141528
atom 0.94448 10.87127 10.21508 Cu 0.0 0.0 0.488695 0.336434 0.182050
atom 5.52896 4.74049 8.15135 Cu 0.0 0.0 -0.555966 -0.104080 -0.202623
atom 5.25495 2.85580 0.88760 Cu 0.0 0.0 -0.236780 0.111323 0.058556
atom 7.20832 9.00509 5.25253 Cu 0.0 0.0 -0.093050 -0.067663 0.112018
atom 4.02963 9.12378 11.29065 Cu 0.0 0.0 0.214455 -0.397161 -0.297440
atom 2.00869 2.95149 6.95641 Cu 0.0 0.0 0.242228 0.086186 0.256424
atom -3.59727 1.31298 11.56779 Cu 0.0 0.0 -0.234649 0.051811 -0.011230
atom 10.17489 7.11535 7.19747 Cu 0.0 0.0 -0.205621 -0.373986 -0.133792
atom 13.14051 10.69193 0.61472 Cu 0.0 0.0 -0.227511 0.015227 -0.013204
atom -0.15851 4.93004 5.03782 Cu 0.0 0.0 -0.407379 -0.188360 -0.079197
atom -1.03043 0.75778 5.49457 Cu 0.0 0.0 -0.614057 0.276670 -0.421905
atom 13.29870 6.86184 0.95026 Cu 0.0 0.0 0.173253 -0.290646 0.319586
atom 9.90736 11.28706 7.03112 Cu 0.0 0.0 0.528504 -0.034630 0.164799
atom -4.08827 5.25818 11.63154 Cu 0.0 0.0 0.507294 -0.050859 0.108014
atom 14.22568 1.81408 0.08656 Cu 0.0 0.0 0.571499 0.026055 -0.038863
atom -1.97034 7.15598 6.03887 Cu 0.0 0.0 -0.449980 0.314388 0.305998
atom -5.20546 10.47006 12.19513 Cu 0.0 0.0 0.395519 -0.013242 0.783300
atom 11.23565 4.47173 5.73470 Cu 0.0 0.0 -0.177903 -0.216022 0.218810
atom 11.50533 1.75385 6.16054 Cu 0.0 0.0 -0.082071 0.040075 -0.078104
atom 1.05145 7.68106 0.13325 Cu 0.0 0.0 0.678999 0.031254 -0.143904
atom -1.99506 10.44925 6.34486 Cu 0.0 0.0 0.240461 0.040601 0.140157
atom 14.46480 4.42495 0.30428 Cu 0.0 0.0 -0.397487 -0.006486 -0.227579
atom 9.50706 3.23697 7.16092 Cu 0.0 0.0 0.420873 -0.228470 -0.137433
atom 3.09422 9.25746 0.87162 Cu 0.0 0.0 0.083127 -0.013205 -0.008907
atom 0.08332 8.97416 7.15956 Cu 0.0 0.0 0.004363 -0.110554 -0.102250
atom 12.23272 2.72008 1.12254 Cu 0.0 0.0 -0.249257 0.710722 -0.108280
atom 1.15816 2.14568 11.54656 Cu 0.0 0.0 -0.411213 -0.684450 0.384207
atom 5.27209 7.82267 6.86516 Cu 0.0 0.0 0.125328 -0.256841 -0.003757
atom 8.17277 10.18657 0.27762 Cu 0.0 0.0 -0.368442 -0.181728 0.621258
atom 3.91864 4.11751 5.06655 Cu 0.0 0.0 -0.432305 0.483675 0.538896
atom 4.00310 1.50710 5.38681 Cu 0.0 0.0 -0.237210 -0.113493 -0.033558
atom 8.72038 7.58568 0.75111 Cu 0.0 0.0 -0.048667 0.004667 0.557755
atom 5.69466 10.30930 6.99982 Cu 0.0 0.0 0.082381 0.291179 -0.205718
atom 0.73141 4.83540 11.36935 Cu 0.0 0.0 -0.060464 -0.428701 -0.029908
atom -1.02582 2.77460 10.47989 Cu 0.0 0.0 -0.129362 0.072520 -0.184218
atom 7.80433 8.30190 7.77366 Cu 0.0 0.0 -0.615739 0.187191 -0.342683
atom 10.52153 9.29163 1.56932 Cu 0.0 0.0 -0.404426 0.511279 0.817259
atom 1.76042 2.96828 4.38708 Cu 0.0 0.0 0.093553 0.136826 -0.191640
atom 8.37753 0.81962 8.31150 Cu 0.0 0.0 0.131603 0.121433 0.418584
atom -2.20379 6.60031 10.26349 Cu 0.0 0.0 0.092194 -0.113727 -1.102924
atom 0.72604 11.56260 3.71135 Cu 0.0 0.0 0.581182 0.170853 1.405298
atom 11.59545 5.02775 2.26956 Cu 0.0 0.0 -0.090177 0.088087 0.453039
atom 11.37961 0.26551 1.88897 Cu 0.0 0.0 -0.706411 0.099231 0.493076
atom 1.44878 6.95846 3.91255 Cu 0.0 0.0 -0.462398 0.338316 0.310223
atom -1.69988 11.16574 10.04945 Cu 0.0 0.0 -0.380264 -0.023048 0.218466
atom 8.06333 4.95413 8.13816 Cu 0.0 0.0 0.026219 0.286594 -0.450587
atom -4.36341 1.98604 9.11700 Cu 0.0 0.0 -0.498227 0.092957 0.168919
atom 10.68527 9.24350 8.40739 Cu 0.0 0.0 -0.570331 -0.426422 0.683351
atom 13.82938 9.09178 2.35866 Cu 0.0 0.0 -0.230559 -0.185157 0.613580
atom 13.96975 3.83629 2.66623 Cu 0.0 0.0 -0.518971 0.102803 0.913475
atom 6.06301 1.07695 3.45090 Cu 0.0 0.0 -0.024730 -0.119319 -0.317544
atom 6.31390 6.99170 2.63117 Cu 0.0 0.0 0.084965 -0.013747 -0.351411
atom 3.43713 11.21558 8.61998 Cu 0.0 0.0 0.027260 -0.463362 -0.130044
atom 2.71760 4.59107 9.25548 Cu 0.0 0.0 0.004397 0.377740 -0.175196
atom 0.44256 0.79397 7.51533 Cu 0.0 0.0 0.392843 -0.098361 0.143483
atom 5.25134 6.41678 10.66453 Cu 0.0 0.0 0.475273 -0.138365 -0.079004
atom 8.24962 11.81450 4.48984 Cu 0.0 0.0 0.215133 -0.064211 -0.350886
atom 4.18342 5.45581 1.75203 Cu 0.0 0.0 -0.080309 -0.016133 -0.219496
atom 4.01003 0.66675 1.73762 Cu 0.0 0.0 0.028881 -0.323578 0.033634
atom 8.34839 6.92699 4.24743 Cu 0.0 0.0 -0.310258 0.036970 0.397137
atom 5.48094 11.18523 10.58182 Cu 0.0 0.0 0.514304 0.188252 -0.630833
atom 1.07131 5.38871 7.37534 Cu 0.0 0.0 0.320279 0.188182 0.416405
atom 4.21301 2.62568 9.10014 Cu 0.0 0.0 -0.197230 -0.370539 -0.076098
atom 2.86651 8.26904 9.12445 Cu 0.0 0.0 0.813195 0.821609 -0.598471
atom 5.34637 9.52143 2.76224 Cu 0.0 0.0 0.183371 -0.205205 0.073164
atom 6.83808 3.46300 3.01720 Cu 0.0 0.0 0.096663 -0.107759 -0.264892
atom -1.22919 1.20692 2.84928 Cu 0.0 0.0 0.111910 0.175226 -0.288781
atom 12.57696 7.12242 3.51550 Cu 0.0 0.0 -0.080300 0.482168 0.355862
atom 9.16529 10.95579 10.07757 Cu 0.0 0.0 -0.015034 0.485749 -0.534452
atom 10.74902 4.75363 8.87895 Cu 0.0 0.0 0.538526 -0.144405 -0.516937
atom 4.19619 1.36541 11.49226 Cu 0.0 0.0 -0.380785 -0.030453 -0.004198
atom 2.45878 7.37775 6.65467 Cu 0.0 0.0 0.066074 -0.078546 0.088615
atom 5.31896 10.66606 0.43882 Cu 0.0 0.0 0.385710 -0.001102 -0.031416
atom 6.91402 4.80767 5.46184 Cu 0.0 0.0 0.125936 0.245444 -0.030834
atom 7.15034 2.69321 6.67590 Cu 0.0 0.0 -0.238705 -0.448773 0.259050
atom -0.81738 8.39491 11.50197 Cu 0.0 0.0 -0.436133 -0.344043 -0.296601
atom 2.10487 9.67028 5.38794 Cu 0.0 0.0 -0.077371 0.125704 -0.228517
atom 9.68527 3.42373 0.94518 Cu 0.0 0.0 0.175207 -0.068417 -0.088789
atom 2.62334 2.67217 1.88371 Cu 0.0 0.0 -0.048296 0.199486 -0.370291
atom 10.41720 8.36449 4.55256 Cu 0.0 0.0 0.315948 0.348300 0.091776
atom 7.21584 9.43029 10.57027 Cu 0.0 0.0 0.126790 -0.352963 0.043304
atom -0.52072 3.61443 7.80169 Cu 0.0 0.0 -0.368694 -0.497919 0.257311
atom -2.05660 1.09117 8.12167 Cu 0.0 0.0 -0.050113 -0.337128 0.262282
atom 8.62319 6.99659 9.55662 Cu 0.0 0.0 -0.012621 0.030326 0.525793
atom 11.01715 10.84050 3.79143 Cu 0.0 0.0 0.398331 -0.525816 0.304382
atom 0.75801 4.98978 2.17022 Cu 0.0 0.0 -0.010398 -0.002406 0.096091
energy -567.404752
charge 0.0
end
begin
comment source_file_name=OUTCAR_4_124
lattice 15.500587762 0.000000000 0.000000000
lattice 0.000000000 12.082446869 0.000000000
lattice -6.089371395 0.000000000 12.293885415
atom 9.50410 0.76802 10.45161 S 0.0 0.0 0.640875 0.266748 -0.858945
atom -3.15994 7.08941 7.80010 S 0.0 0.0 -0.365604 0.003541 0.417022
atom -0.48097 10.88463 1.58416 S 0.0 0.0 0.136805 0.509213 0.137938
atom 12.70994 4.97717 4.24055 S 0.0 0.0 0.201329 0.059868 0.266074
atom 12.64729 1.13865 4.14005 S 0.0 0.0 -0.875522 0.232730 0.574094
atom 0.25057 6.85877 1.67778 S 0.0 0.0 -0.662225 0.558296 -0.255495
atom -3.09982 11.31509 8.18143 S 0.0 0.0 -0.483827 -0.076863 -0.976355
atom 9.35040 5.09779 10.39989 S 0.0 0.0 1.078150 -0.379429 0.371257
atom 9.14018 0.99753 5.95036 S 0.0 0.0 -0.051405 0.222035 0.434925
atom -2.61744 6.98445 12.21184 S 0.0 0.0 -0.819086 0.384189 0.585905
atom 0.20496 10.98551 5.93173 S 0.0 0.0 0.030850 0.401863 0.025164
atom 12.12276 5.27652 0.11092 S 0.0 0.0 0.099458 0.016686 -0.100341
atom 5.91870 1.14343 12.23971 S 0.0 0.0 -0.639356 0.131721 0.052611
atom 0.30795 7.11723 6.01174 S 0.0 0.0 -0.251277 -1.213995 0.164650
atom -2.47746 10.83921 12.14531 S 0.0 0.0 -0.579315 0.574147 -0.109306
atom 9.17580 4.94582 6.50602 S 0.0 0.0 0.492658 0.564524 -1.079495
atom 3.38301 1.05885 7.32064 S 0.0 0.0 0.104195 0.501517 0.658794
atom 2.99992 6.92326 11.14816 S 0.0 0.0 -0.690776 0.028213 0.337013
atom 6.06594 10.81397 4.78901 S 0.0 0.0 -0.277608 0.370675 -0.169613
atom 6.25364 4.66069 1.20063 S 0.0 0.0 0.128841 0.872295 -0.980718
atom 6.34106 0.84140 1.41468 S 0.0 0.0 -0.403433 -0.175356 -0.041575
atom 6.12576 7.01068 4.84685 S 0.0 0.0 0.046278 -0.535626 0.770606
atom 2.99879 11.05220 11.20888 S 0.0 0.0 1.276722 0.658678 0.859274
atom 3.14585 5.11138 7.20061 S 0.0 0.0 -0.092766 0.264892 -0.306700
atom -0.27624 0.74540 9.54612 S 0.0 0.0 0.323450 0.593758 0.302291
atom 6.57534 6.65908 8.84863 S 0.0 0.0 0.215819 0.970077 -0.006143
atom 9.75993 11.26999 2.88786 S 0.0 0.0 0.388648 -0.810920 -0.279678
atom 2.77744 4.99138 3.30057 S 0.0 0.0 0.701894 0.417218 0.448955
atom 2.70076 0.96030 3.46247 S 0.0 0.0 -0.454814 -0.539713 -0.699747
atom 9.94109 6.96658 2.80803 S 0.0 0.0 0.113005 0.192000 -0.211853
atom 6.71358 11.19431 8.83920 S 0.0 0.0 0.674425 -0.294603 0.293181
atom -0.67627 5.35741 9.47180 S 0.0 0.0 0.314933 -0.949434 0.248633
atom 6.27267 3.14164 9.01196 S 0.0 0.0 0.335462 -0.920261 -0.021531
atom -0.31676 9.15485 9.48235 S 0.0 0.0 0.617476 0.149300 0.399309
atom 2.82395 8.97047 3.80219 S 0.0 0.0 0.003876 -0.139610 -0.931010
atom 9.28327 2.94096 2.66345 S 0.0 0.0 0.500363 -0.064275 -0.278555
atom 6.03152 2.65883 5.04385 S 0.0 0.0 -0.049187 0.089853 0.431179
atom 6.47359 8.80156 1.41613 S 0.0 0.0 1.073288 -0.129390 -1.673334
atom 3.68774 9.27382 7.47157 S 0.0 0.0 -0.337466 -0.134934 0.025150
atom 2.87118 3.41602 11.13022 S 0.0 0.0 0.343522 0.431985 0.374246
atom 0.20524 2.79731 5.69204 S 0.0 0.0 -0.274231 0.464213 0.165644
atom 12.25117 9.05936 0.32099 S 0.0 0.0 -0.380770 -0.307955 0.435238
atom 9.20986 9.43896 6.64573 S 0.0 0.0 0.322122 -0.403659 -0.973695
atom -2.91256 2.85729 11.77216 S 0.0 0.0 0.117195 -0.035872 0.390688
atom -0.15494 2.73833 1.47768 S 0.0 0.0 -0.396436 -0.166265 0.485981
atom 12.46218 8.97329 4.54311 S 0.0 0.0 -0.398848 0.723452 -0.720524
atom 9.63425 9.18594 10.64658 S 0.0 0.0 -0.817611 -0.502407 -0.294461
atom -3.03819 3.15838 7.79925 S 0.0 0.0 -0.389161 0.472252 -0.522864
atom 11.44261 3.17883 3.39914 Cu 0.0 0.0 -0.112076 0.062419 0.235497
atom 0.73813 9.22012 2.34689 Cu 0.0 0.0 0.407671 -0.762559 0.879170
atom -2.11543 9.14403 8.20163 Cu 0.0 0.0 -0.736542 -0.170504 -0.135000
atom 8.78257 2.91894 9.94865 Cu 0.0 0.0 0.074663 0.111987 -0.087260
atom 5.44081 0.91688 8.74315 Cu 0.0 0.0 -0.180289 0.645887 -0.366148
atom 0.77289 7.30984 9.98548 Cu 0.0 0.0 -0.277405 -0.881330 0.335080
atom 3.85512 10.95899 3.91346 Cu 0.0 0.0 0.260423 0.320780 -0.193056
atom 8.53235 5.11107 2.48624 Cu 0.0 0.0 -0.058014 -0.089280 -0.050176
atom 8.43690 0.63670 1.96905 Cu 0.0 0.0 0.099391 0.927992 0.179655
atom 3.99811 6.95598 3.90500 Cu 0.0 0.0 -0.352701 -0.011541 0.050527
atom 1.18262 10.61798 10.28166 Cu 0.0 0.0 -1.094495 -0.340401 -0.726245
atom 5.10052 4.88890 8.30125 Cu 0.0 0.0 0.018158 0.149382 -0.187026
atom 5.10993 2.61008 0.77614 Cu 0.0 0.0 -0.275247 0.260318 -0.417356
atom 7.25024 8.89725 5.25590 Cu 0.0 0.0 0.639651 0.022245 0.247963
atom 4.08558 8.88878 11.36107 Cu 0.0 0.0 0.524273 0.774990 0.801272
atom 2.21835 3.02757 6.84923 Cu 0.0 0.0 -0.169081 0.275750 0.105148
atom -3.87773 0.67325 11.41533 Cu 0.0 0.0 0.251774 0.280134 0.178852
atom 9.32650 7.13585 7.16763 Cu 0.0 0.0 0.548313 -0.054311 -0.557519
atom 12.78822 11.27114 0.55769 Cu 0.0 0.0 0.294325 -0.384911 -0.009479
atom -0.88291 4.97952 5.49548 Cu 0.0 0.0 0.564377 0.282694 -0.115547
atom -0.94004 0.86817 5.17878 Cu 0.0 0.0 0.531793 -0.105153 0.480341
atom 13.50445 7.21972 0.82994 Cu 0.0 0.0 0.202768 -0.216719 0.219452
atom 10.42550 11.49942 6.83806 Cu 0.0 0.0 0.645052 -0.311437 0.297678
atom -4.02735 4.98160 11.70489 Cu 0.0 0.0 -0.046036 -0.144755 -0.350289
atom 8.20421 1.34114 12.16595 Cu 0.0 0.0 -0.136416 0.398756 0.126365
atom -1.77903 7.86620 5.88147 Cu 0.0 0.0 0.105846 -0.233096 0.554421
atom 1.66504 10.96535 0.86414 Cu 0.0 0.0 -0.184789 0.089984 -0.093283
atom 11.43269 4.94510 6.15516 Cu 0.0 0.0 0.189353 -0.287190 0.179424
atom 11.54652 1.99240 6.03084 Cu 0.0 0.0 -0.256757 -0.069354 0.081431
atom 1.32088 8.42018 0.03724 Cu 0.0 0.0 0.539276 -0.848730 0.280594
atom -2.06691 10.78843 6.10765 Cu 0.0 0.0 -0.108623 -0.309974 0.146050
atom 14.26465 4.40857 0.36693 Cu 0.0 0.0 0.412592 0.251008 -0.105895
atom 9.16437 3.15084 4.96085 Cu 0.0 0.0 0.467762 0.009060 -0.106487
atom 3.36199 9.06496 1.37785 Cu 0.0 0.0 -0.107118 -0.157953 0.607531
atom 1.62801 10.16897 7.79782 Cu 0.0 0.0 -0.526198 -0.059200 -0.422974
atom 6.47262 3.27713 11.35497 Cu 0.0 0.0 -0.202188 -0.326019 -0.295010
atom 1.23819 2.15754 10.64122 Cu 0.0 0.0 -0.624050 -0.672011 -0.400657
atom 5.30465 8.56498 8.89314 Cu 0.0 0.0 -0.041987 0.097000 0.042969
atom 8.54982 10.41819 1.05587 Cu 0.0 0.0 -0.562692 -0.457171 -0.043132
atom 4.52926 4.23428 4.65698 Cu 0.0 0.0 -0.659458 0.072383 -0.106897
atom 3.81504 1.63345 5.18581 Cu 0.0 0.0 0.679348 0.155179 0.362082
atom 8.29981 7.49568 1.36371 Cu 0.0 0.0 0.292845 0.322096 -0.156796
atom 5.85024 10.37924 6.97358 Cu 0.0 0.0 -0.308445 0.090612 -0.040160
atom 0.61641 4.73112 11.16183 Cu 0.0 0.0 0.167678 -0.391596 0.134068
atom -1.09406 2.83181 10.15039 Cu 0.0 0.0 -0.289599 0.191471 0.144924
atom 7.53328 8.64255 7.81010 Cu 0.0 0.0 -0.410488 -0.373785 0.688861
atom 10.55700 9.25204 1.89577 Cu 0.0 0.0 0.008971 -0.108409 0.159629
atom 1.92211 3.05547 4.24761 Cu 0.0 0.0 0.075546 0.396327 -0.235163
atom 8.65383 0.55413 8.23760 Cu 0.0 0.0 0.005452 0.005784 0.424360
atom -2.55086 6.53265 10.09238 Cu 0.0 0.0 -0.262719 0.202456 -0.932792
atom 0.90508 11.74169 3.78313 Cu 0.0 0.0 -0.150431 -0.455428 0.140236
atom 11.78802 5.54212 2.32963 Cu 0.0 0.0 -0.124617 0.257916 -0.409950
atom 11.61932 0.94869 2.18215 Cu 0.0 0.0 -0.353023 -0.227486 -0.564353
atom 1.05562 6.53028 3.96023 Cu 0.0 0.0 0.168913 -0.084876 0.016187
atom -1.76094 11.00618 9.97517 Cu 0.0 0.0 0.098497 0.074319 0.555086
atom 7.69498 4.65712 7.98759 Cu 0.0 0.0 -0.445991 -0.271844 0.809157
atom -4.24716 2.00227 9.25078 Cu 0.0 0.0 -0.534140 -0.083126 0.310756
atom 10.82742 8.28566 8.92735 Cu 0.0 0.0 0.289489 -0.198715 -0.063571
atom 13.45709 9.48564 2.56436 Cu 0.0 0.0 -0.094304 -0.251934 0.167616
atom -1.13919 3.60534 3.37464 Cu 0.0 0.0 -0.081470 -0.216910 -0.268008
atom 5.81252 0.87416 3.69546 Cu 0.0 0.0 0.239683 -0.389727 -0.441421
atom 6.27049 6.44284 2.73448 Cu 0.0 0.0 0.593297 -0.267458 -0.209278
atom 3.31810 11.57108 8.96326 Cu 0.0 0.0 -0.094871 0.025466 -0.063309
atom 2.93597 5.49182 9.37236 Cu 0.0 0.0 -0.352565 0.166649 0.402671
atom 1.19319 0.86485 7.88775 Cu 0.0 0.0 0.112395 -0.280213 0.120366
atom 5.26044 6.78722 10.70638 Cu 0.0 0.0 0.200201 -0.557848 -0.024562
atom 8.36755 11.16562 4.67475 Cu 0.0 0.0 0.099281 0.195008 -0.022501
atom 4.26368 5.66242 1.58437 Cu 0.0 0.0 -0.713695 -0.342037 -0.255913
atom 3.94831 0.44729 1.60572 Cu 0.0 0.0 -0.373471 0.103052 0.100319
atom 8.51632 6.74447 4.54446 Cu 0.0 0.0 -0.287029 -0.070477 0.054991
atom 5.26048 11.15558 10.54689 Cu 0.0 0.0 0.010288 0.017542 0.174574
atom 0.80269 5.77855 7.91179 Cu 0.0 0.0 0.151297 -0.299896 -0.394095
atom 3.54421 2.88108 9.06926 Cu 0.0 0.0 0.134787 -0.405971 -0.278721
atom 2.79386 8.35830 9.40614 Cu 0.0 0.0 0.421860 0.208443 -0.662631
atom 5.51876 8.95312 3.28504 Cu 0.0 0.0 -0.516486 0.374121 0.944122
atom 6.47196 3.62579 3.03481 Cu 0.0 0.0 0.034735 -0.775339 0.537677
atom 14.15939 0.56032 2.61849 Cu 0.0 0.0 0.357476 0.155425 -0.251905
atom -1.33103 6.95771 3.30479 Cu 0.0 0.0 -0.441228 -0.034632 0.201249
atom 10.69010 10.74585 9.61767 Cu 0.0 0.0 0.383109 0.887366 -0.524036
atom -4.26198 4.65909 9.05469 Cu 0.0 0.0 -0.351208 0.015277 0.243678
atom 3.51669 1.28051 11.64637 Cu 0.0 0.0 0.130873 -0.302352 -0.216671
atom 2.38974 7.46529 6.99156 Cu 0.0 0.0 0.230953 0.041896 -0.041359
atom 5.56353 10.80506 0.96796 Cu 0.0 0.0 0.626194 -0.006385 0.114088
atom 7.22734 4.74326 5.10303 Cu 0.0 0.0 -0.291754 0.209924 0.300175
atom 7.57996 2.33894 6.91905 Cu 0.0 0.0 -0.505569 0.292717 0.181547
atom -0.98774 8.57345 11.79519 Cu 0.0 0.0 0.415435 -0.079250 -0.345337
atom 0.87942 9.02397 5.07166 Cu 0.0 0.0 0.193953 0.478963 -0.291218
atom 10.35506 3.85100 0.71450 Cu 0.0 0.0 -0.005244 -0.092026 0.344046
atom 2.08530 2.27155 1.67193 Cu 0.0 0.0 0.297269 0.059745 -0.607520
atom 10.11475 8.59559 4.45899 Cu 0.0 0.0 0.065398 0.290857 0.624966
atom 7.31810 9.47289 10.77761 Cu 0.0 0.0 0.095057 0.223664 -0.700720
atom -0.61214 3.59627 7.63285 Cu 0.0 0.0 -0.066518 0.184155 0.474062
atom -1.78829 1.25111 7.75054 Cu 0.0 0.0 0.004942 -0.258494 0.392792
atom 8.71311 7.23083 9.84811 Cu 0.0 0.0 -0.373314 -0.092349 -0.144806
atom 11.63479 11.13932 4.32592 Cu 0.0 0.0 0.193398 -0.054525 -0.140596
atom 0.85282 4.69732 2.08289 Cu 0.0 0.0 -0.006659 -0.137894 -0.260756
energy -565.024216
charge 0.0
end
begin
comment source_file_name=OUTCAR_4_156
lattice 15.476500743 0.000000000 0.000000000
lattice 0.000000000 12.063671443 0.000000000
lattice -6.079908863 0.000000000 12.274781426
atom 9.46546 0.80147 10.59117 S 0.0 0.0 0.567680 0.746124 -0.093120
atom -3.68163 7.22230 8.34836 S 0.0 0.0 0.387695 -0.000600 -0.616679
atom -0.52248 10.99513 1.81375 S 0.0 0.0 0.529956 0.600806 0.268886
atom 12.59401 5.04757 4.12770 S 0.0 0.0 -0.893270 -0.177804 -0.208977
atom 12.90765 0.87444 4.38374 S 0.0 0.0 0.038247 -0.271884 -0.005272
atom -0.45034 7.05854 1.72671 S 0.0 0.0 0.119406 -0.479405 -0.111679
atom -3.18674 11.07152 7.99360 S 0.0 0.0 1.118232 -0.052893 -0.826535
atom 9.44056 5.00424 10.01691 S 0.0 0.0 -0.320228 0.045556 1.555971
atom 8.97165 1.08320 6.29060 S 0.0 0.0 0.273196 0.445005 -0.512019
atom -2.79343 6.69069 12.21453 S 0.0 0.0 -0.301627 1.249701 -0.133407
atom 0.44323 10.94663 6.41511 S 0.0 0.0 -0.101366 -0.267548 -0.323962
atom 12.03816 4.73106 0.09168 S 0.0 0.0 -0.474474 1.187613 -0.299392
atom 12.21250 0.97729 0.03720 S 0.0 0.0 0.187815 -0.130197 -0.977853
atom 0.15367 6.84387 6.04010 S 0.0 0.0 0.361664 -0.444143 -0.353284
atom -2.90699 11.26923 12.17921 S 0.0 0.0 0.543831 0.646016 -0.394893
atom 9.36361 5.07040 6.19915 S 0.0 0.0 0.069293 0.756133 -0.092190
atom 3.53000 1.21954 7.39901 S 0.0 0.0 0.576983 -1.057321 -0.285009
atom 3.07817 7.06183 10.92203 S 0.0 0.0 0.016339 0.421993 -0.075650
atom 5.59602 10.97445 4.74410 S 0.0 0.0 0.614559 -0.541080 -0.695432
atom 6.52643 5.37685 1.02303 S 0.0 0.0 -0.315995 -0.756273 -0.568400
atom 6.39645 1.05525 1.13122 S 0.0 0.0 -0.175946 -0.242829 0.580477
atom 6.20713 6.99564 4.71608 S 0.0 0.0 -0.096960 0.246862 1.425064
atom 3.27660 11.18008 11.05265 S 0.0 0.0 -0.388274 0.471693 0.125603
atom 3.54991 5.24067 7.23839 S 0.0 0.0 0.184875 0.622950 0.458725
atom -0.07747 0.74895 9.71394 S 0.0 0.0 -0.103270 -0.198811 0.013759
atom 6.59266 7.13977 8.81371 S 0.0 0.0 0.025276 -0.616490 0.413537
atom 9.29761 10.73738 3.20162 S 0.0 0.0 0.846685 0.426387 -0.060270
atom 2.78806 4.99301 3.26806 S 0.0 0.0 -0.640321 -0.306359 -0.382640
atom 2.52797 0.99565 3.37753 S 0.0 0.0 -0.670207 0.173779 -0.181495
atom 9.75648 6.94794 2.44423 S 0.0 0.0 0.317034 0.127640 1.091171
atom 6.94355 11.13313 8.80603 S 0.0 0.0 -0.654784 -0.522950 -0.132272
atom -0.47195 5.15769 9.43825 S 0.0 0.0 -0.052124 -0.245848 0.180956
atom 6.29212 3.16271 9.27460 S 0.0 0.0 0.677534 -0.135818 -0.224365
atom -0.08736 8.90143 9.72942 S 0.0 0.0 -0.142352 0.065481 -0.102894
atom 2.84480 8.65680 3.59745 S 0.0 0.0 0.640785 1.301371 -1.203788
atom 9.61495 3.14859 2.80785 S 0.0 0.0 -0.134976 -0.244299 0.721474
atom 5.72191 3.02441 4.57791 S 0.0 0.0 -0.127158 0.076065 0.736390
atom 6.47500 8.81751 1.00886 S 0.0 0.0 0.036667 0.198122 -0.564205
atom 3.64678 9.21413 7.27095 S 0.0 0.0 0.492753 -0.140737 -0.089038
atom 2.92901 3.23826 11.04729 S 0.0 0.0 0.822623 0.671775 0.772652
atom 0.24651 2.74674 6.18263 S 0.0 0.0 -0.240931 0.726145 -0.000563
atom 12.08990 8.89425 0.27939 S 0.0 0.0 0.814841 -0.770468 -0.345620
atom 9.11068 9.27143 6.29596 S 0.0 0.0 1.258264 0.518124 -0.024154
atom -2.59733 3.24197 11.84498 S 0.0 0.0 -0.945029 -0.202447 0.457925
atom -0.01614 3.03639 1.45711 S 0.0 0.0 -0.231271 0.089271 0.100558
atom 12.65137 8.62973 4.71253 S 0.0 0.0 -0.975836 0.509250 0.700128
atom 9.61046 9.29715 10.54329 S 0.0 0.0 -0.689819 -0.038470 0.279675
atom -3.32385 2.82722 7.63729 S 0.0 0.0 -0.481512 -0.403178 -0.397401
atom 11.85911 2.73356 3.92196 Cu 0.0 0.0 -0.479321 0.767893 -0.562323
atom 0.47693 9.02830 2.23133 Cu 0.0 0.0 0.605631 -0.267566 -0.103670
atom -2.19514 9.06196 8.75963 Cu 0.0 0.0 -0.120668 -0.075990 -0.026226
atom 8.61715 2.90429 9.93588 Cu 0.0 0.0 -0.652625 -0.157447 0.123248
atom 5.71077 1.15189 8.57530 Cu 0.0 0.0 -0.306528 -0.389515 -0.056375
atom 1.26479 6.55483 9.74342 Cu 0.0 0.0 0.008496 0.424139 -0.022828
atom 3.52146 11.10608 3.67750 Cu 0.0 0.0 0.020809 -0.597194 0.023990
atom 8.41537 4.98142 2.27163 Cu 0.0 0.0 0.235358 0.181826 0.048358
atom 8.47714 1.62571 1.63661 Cu 0.0 0.0 0.043483 -0.054413 0.120383
atom 4.23686 6.67208 3.77629 Cu 0.0 0.0 -0.192383 0.291531 -0.159868
atom 1.25660 10.66737 10.34630 Cu 0.0 0.0 -0.166772 -0.029497 -0.384436
atom 5.78458 4.84978 7.88012 Cu 0.0 0.0 -0.305981 0.142683 0.203704
atom 5.67013 3.03303 0.39460 Cu 0.0 0.0 -0.166652 0.502137 1.029409
atom 7.31158 9.09460 5.08344 Cu 0.0 0.0 -0.375016 -0.270243 0.237188
atom 4.08426 9.16877 11.44258 Cu 0.0 0.0 -0.092277 -0.434750 -0.047490
atom 2.42517 3.24054 7.00311 Cu 0.0 0.0 -0.487249 0.014319 0.028694
atom -3.90757 1.37249 11.66955 Cu 0.0 0.0 -0.006246 -0.038404 -0.221264
atom 10.22622 7.30622 6.47770 Cu 0.0 0.0 -0.165882 -0.583060 0.464311
atom 12.85761 10.96943 0.71117 Cu 0.0 0.0 -0.041550 -0.286652 0.150542
atom -1.14568 4.99241 5.33793 Cu 0.0 0.0 1.297120 -0.130980 0.685738
atom -0.48841 0.74430 5.35584 Cu 0.0 0.0 -0.015612 -0.057127 0.042696
atom 13.10162 6.71640 0.47226 Cu 0.0 0.0 -1.145080 0.495996 0.416225
atom 10.21666 11.25355 7.02194 Cu 0.0 0.0 -0.079102 0.148430 -0.440147
atom -4.07484 5.08443 11.33871 Cu 0.0 0.0 -0.173705 -0.328670 -0.353105
atom 0.19376 1.05571 2.56997 Cu 0.0 0.0 0.111002 -0.206344 -0.053624
atom -2.51044 7.04100 6.42154 Cu 0.0 0.0 0.263451 0.157264 0.197031
atom 1.02280 10.58200 0.06181 Cu 0.0 0.0 -0.218236 -0.187763 0.031161
atom 11.66814 4.65161 6.11953 Cu 0.0 0.0 -0.070981 -0.144674 0.268308
atom 11.17925 1.32646 5.84452 Cu 0.0 0.0 0.023128 -0.035360 0.242812
atom -4.61050 7.95128 11.73329 Cu 0.0 0.0 0.329658 -0.333983 0.292666
atom -1.78278 10.52749 5.82970 Cu 0.0 0.0 0.034615 -0.364520 0.129266
atom 9.00914 5.78702 12.09242 Cu 0.0 0.0 0.994671 -0.386441 -0.075135
atom 7.80736 2.39500 4.07240 Cu 0.0 0.0 0.441504 0.017547 -0.066392
atom 3.16731 9.66801 1.33663 Cu 0.0 0.0 -0.274231 -0.649275 1.020066
atom -0.04408 8.60360 7.36891 Cu 0.0 0.0 0.180492 0.364851 0.169512
atom 13.36768 3.03761 0.20609 Cu 0.0 0.0 0.978545 -0.227040 0.222372
atom 1.44044 1.67482 11.32771 Cu 0.0 0.0 -1.101495 -0.309701 0.206537
atom 5.63563 7.79884 6.93017 Cu 0.0 0.0 -0.324695 0.238419 -0.473087
atom 8.51250 10.83254 1.12027 Cu 0.0 0.0 0.488465 -0.159050 -0.471260
atom 3.85876 4.58544 5.21483 Cu 0.0 0.0 0.259699 -0.580176 -0.504002
atom 3.39975 1.76570 5.21088 Cu 0.0 0.0 0.372620 0.050830 0.105994
atom 8.50288 7.67680 0.77178 Cu 0.0 0.0 -0.034512 0.180881 -0.277722
atom 5.95585 10.44534 6.85060 Cu 0.0 0.0 -0.098091 0.113787 0.635195
atom 1.06569 4.44498 11.00679 Cu 0.0 0.0 -0.459896 -0.095633 0.239578
atom -0.92630 2.83989 10.40390 Cu 0.0 0.0 0.027126 -0.201139 -1.262686
atom 7.82589 8.89581 7.99861 Cu 0.0 0.0 -0.456813 -0.163378 0.435444
atom 10.74970 9.49448 1.89715 Cu 0.0 0.0 -0.433436 0.141223 0.371875
atom 1.52592 3.52200 4.56827 Cu 0.0 0.0 -0.045412 0.251593 -0.299799
atom 8.40968 0.71057 8.37641 Cu 0.0 0.0 0.636335 -0.600660 1.020686
atom -2.31332 6.41934 10.00683 Cu 0.0 0.0 0.079240 0.163677 -0.160208
atom 0.62963 10.68788 4.08853 Cu 0.0 0.0 -0.364721 0.569182 0.036294
atom 11.44204 5.26910 2.22302 Cu 0.0 0.0 -0.212612 0.269129 -0.552828
atom 10.56674 0.15792 1.57028 Cu 0.0 0.0 0.026637 -0.359762 0.478559
atom 1.45183 7.10351 4.02133 Cu 0.0 0.0 -0.837559 -0.613186 0.649713
atom -1.23030 10.76433 10.69782 Cu 0.0 0.0 -0.228945 0.181178 -0.141454
atom 8.19768 5.49842 8.15275 Cu 0.0 0.0 -0.067737 0.013079 -0.565414
atom 10.75518 2.03047 9.08778 Cu 0.0 0.0 -0.127089 -0.626709 0.675419
atom 10.53941 9.26580 8.47578 Cu 0.0 0.0 -0.011505 -1.144278 -0.194608
atom 13.67048 9.86424 3.27436 Cu 0.0 0.0 0.310611 0.109719 -0.309471
atom 13.87761 3.86356 2.79151 Cu 0.0 0.0 0.075938 -0.485094 -0.088543
atom 5.79025 0.85484 3.65459 Cu 0.0 0.0 0.006360 0.221598 -0.284394
atom 6.71967 7.06096 2.56724 Cu 0.0 0.0 -0.065842 -0.127556 -0.207352
atom 3.43429 11.02735 8.59249 Cu 0.0 0.0 0.069115 0.305329 0.241524
atom 3.12381 4.49821 9.26633 Cu 0.0 0.0 -0.106447 0.431844 -0.214806
atom 1.42765 0.47369 8.00013 Cu 0.0 0.0 -0.565141 -0.228125 -0.260050
atom 5.32980 6.85063 10.76243 Cu 0.0 0.0 0.217987 -0.176717 -0.224907
atom 7.82504 11.81171 4.96800 Cu 0.0 0.0 -0.410194 -0.162350 -0.300873
atom 4.06569 5.08945 1.23542 Cu 0.0 0.0 0.226147 -0.558748 0.635810
atom 3.82072 0.69367 1.61273 Cu 0.0 0.0 0.352183 -0.330605 -0.433545
atom 8.42771 6.69296 4.47460 Cu 0.0 0.0 0.689370 -0.431659 -0.180798
atom 5.46930 11.27210 10.45754 Cu 0.0 0.0 -0.131870 0.167259 -0.200839
atom 1.02843 5.27934 7.63758 Cu 0.0 0.0 -0.362658 0.007936 -0.282589
atom 2.81917 2.00618 9.27301 Cu 0.0 0.0 0.318462 0.074140 0.001576
atom 2.64013 8.64133 9.20612 Cu 0.0 0.0 0.128971 -0.137565 0.331888
atom 6.04710 9.36861 3.07892 Cu 0.0 0.0 -0.667901 0.845714 0.059480
atom 6.00274 4.27888 2.85114 Cu 0.0 0.0 -0.037020 0.057974 -0.353457
atom 12.92783 1.12272 2.04760 Cu 0.0 0.0 0.401960 0.151104 1.434726
atom 13.37407 7.13313 3.29031 Cu 0.0 0.0 0.324719 -0.201409 -0.364960
atom -4.65025 11.33050 9.53169 Cu 0.0 0.0 -0.565266 1.138113 1.042211
atom 11.04888 4.60936 8.68318 Cu 0.0 0.0 0.940677 -0.174636 -0.571331
atom 4.02365 1.31607 11.56031 Cu 0.0 0.0 -0.376401 -0.380534 -0.131713
atom 2.46413 7.30893 6.98392 Cu 0.0 0.0 -0.328069 -0.319872 0.014500
atom 6.16733 10.98807 0.73595 Cu 0.0 0.0 -0.576462 -0.180970 -0.049483
atom 7.32782 4.31071 5.82521 Cu 0.0 0.0 -0.522107 0.353251 -0.959985
atom 7.66354 2.73122 7.50603 Cu 0.0 0.0 -0.166669 0.192502 0.201686
atom -1.43250 8.41399 11.77217 Cu 0.0 0.0 0.347823 0.068297 -0.186494
atom 2.11419 9.49110 5.62346 Cu 0.0 0.0 -0.042565 0.158531 -0.223262
atom 11.03887 2.73447 1.15455 Cu 0.0 0.0 -0.117768 0.166711 0.190583
atom 2.43931 2.81590 1.89111 Cu 0.0 0.0 0.006521 0.227399 -0.415608
atom 10.21714 8.56313 4.34968 Cu 0.0 0.0 0.258534 0.100881 -0.558522