begin
atom   0.00000000E+00   0.00000000E+00   0.00000000E+00 H    0.00000000E+00   0.00000000E+00  -1.38564065E+01  -1.38564065E+01  -1.38564065E+01
atom   5.77350269E-01   5.77350269E-01   5.77350269E-01 H    0.00000000E+00   0.00000000E+00   1.38564065E+01   1.38564065E+01   1.38564065E+01
energy   0.00000000E+00
comment r =   1.00000000E+00, E =   0.00000000E+00, dEdr =  -2.40000000E+01
end
begin
atom   0.00000000E+00   0.00000000E+00   0.00000000E+00 H    0.00000000E+00   0.00000000E+00  -7.24628231E+00  -7.24628231E+00  -7.24628231E+00
atom   5.95974471E-01   5.95974471E-01   5.95974471E-01 H    0.00000000E+00   0.00000000E+00   7.24628231E+00   7.24628231E+00   7.24628231E+00
energy  -5.73454608E-01
comment r =   1.03225806E+00, E =  -5.73454608E-01, dEdr =  -1.25509291E+01
end
begin
atom   0.00000000E+00   0.00000000E+00   0.00000000E+00 H    0.00000000E+00   0.00000000E+00  -3.34913855E+00  -3.34913855E+00  -3.34913855E+00
atom   6.14598674E-01   6.14598674E-01   6.14598674E-01 H    0.00000000E+00   0.00000000E+00   3.34913855E+00   3.34913855E+00   3.34913855E+00
energy  -8.59816647E-01
comment r =   1.06451613E+00, E =  -8.59816647E-01, dEdr =  -5.80087812E+00
end
begin
atom   0.00000000E+00   0.00000000E+00   0.00000000E+00 H    0.00000000E+00   0.00000000E+00  -1.08160186E+00  -1.08160186E+00  -1.08160186E+00
atom   6.33222876E-01   6.33222876E-01   6.33222876E-01 H    0.00000000E+00   0.00000000E+00   1.08160186E+00   1.08160186E+00   1.08160186E+00
energy  -9.77793774E-01
comment r =   1.09677419E+00, E =  -9.77793774E-01, dEdr =  -1.87338938E+00
end
begin
atom   0.00000000E+00   0.00000000E+00   0.00000000E+00 H    0.00000000E+00   0.00000000E+00   2.03899029E-01   2.03899029E-01   2.03899029E-01
atom   6.51847078E-01   6.51847078E-01   6.51847078E-01 H    0.00000000E+00   0.00000000E+00  -2.03899029E-01  -2.03899029E-01  -2.03899029E-01
energy  -9.98815819E-01
comment r =   1.12903226E+00, E =  -9.98815819E-01, dEdr =   3.53163477E-01
end
begin
atom   0.00000000E+00   0.00000000E+00   0.00000000E+00 H    0.00000000E+00   0.00000000E+00   8.97910071E-01   8.97910071E-01   8.97910071E-01
atom   6.70471280E-01   6.70471280E-01   6.70471280E-01 H    0.00000000E+00   0.00000000E+00  -8.97910071E-01  -8.97910071E-01  -8.97910071E-01
energy  -9.65932854E-01
comment r =   1.16129032E+00, E =  -9.65932854E-01, dEdr =   1.55522586E+00
end
begin
atom   0.00000000E+00   0.00000000E+00   0.00000000E+00 H    0.00000000E+00   0.00000000E+00   1.23760558E+00   1.23760558E+00   1.23760558E+00
atom   6.89095483E-01   6.89095483E-01   6.89095483E-01 H    0.00000000E+00   0.00000000E+00  -1.23760558E+00  -1.23760558E+00  -1.23760558E+00
energy  -9.05021849E-01
comment r =   1.19354839E+00, E =  -9.05021849E-01, dEdr =   2.14359574E+00
end
begin
atom   0.00000000E+00   0.00000000E+00   0.00000000E+00 H    0.00000000E+00   0.00000000E+00   1.36769496E+00   1.36769496E+00   1.36769496E+00
atom   7.07719685E-01   7.07719685E-01   7.07719685E-01 H    0.00000000E+00   0.00000000E+00  -1.36769496E+00  -1.36769496E+00  -1.36769496E+00
energy  -8.31506209E-01
comment r =   1.22580645E+00, E =  -8.31506209E-01, dEdr =   2.36891715E+00
end
begin
atom   0.00000000E+00   0.00000000E+00   0.00000000E+00 H    0.00000000E+00   0.00000000E+00   1.37664960E+00   1.37664960E+00   1.37664960E+00
atom   7.26343887E-01   7.26343887E-01   7.26343887E-01 H    0.00000000E+00   0.00000000E+00  -1.37664960E+00  -1.37664960E+00  -1.37664960E+00
energy  -7.54423739E-01
comment r =   1.25806452E+00, E =  -7.54423739E-01, dEdr =   2.38442705E+00
end
begin
atom   0.00000000E+00   0.00000000E+00   0.00000000E+00 H    0.00000000E+00   0.00000000E+00   1.31848850E+00   1.31848850E+00   1.31848850E+00
atom   7.44968089E-01   7.44968089E-01   7.44968089E-01 H    0.00000000E+00   0.00000000E+00  -1.31848850E+00  -1.31848850E+00  -1.31848850E+00
energy  -6.78909372E-01
comment r =   1.29032258E+00, E =  -6.78909372E-01, dEdr =   2.28368907E+00
end
begin
atom   0.00000000E+00   0.00000000E+00   0.00000000E+00 H    0.00000000E+00   0.00000000E+00   1.22600840E+00   1.22600840E+00   1.22600840E+00
atom   7.63592292E-01   7.63592292E-01   7.63592292E-01 H    0.00000000E+00   0.00000000E+00  -1.22600840E+00  -1.22600840E+00  -1.22600840E+00
energy  -6.07720201E-01
comment r =   1.32258065E+00, E =  -6.07720201E-01, dEdr =   2.12350884E+00
end
begin
atom   0.00000000E+00   0.00000000E+00   0.00000000E+00 H    0.00000000E+00   0.00000000E+00   1.11888756E+00   1.11888756E+00   1.11888756E+00
atom   7.82216494E-01   7.82216494E-01   7.82216494E-01 H    0.00000000E+00   0.00000000E+00  -1.11888756E+00  -1.11888756E+00  -1.11888756E+00
energy  -5.42176568E-01
comment r =   1.35483871E+00, E =  -5.42176568E-01, dEdr =   1.93797011E+00
end
begin
atom   0.00000000E+00   0.00000000E+00   0.00000000E+00 H    0.00000000E+00   0.00000000E+00   1.00868592E+00   1.00868592E+00   1.00868592E+00
atom   8.00840696E-01   8.00840696E-01   8.00840696E-01 H    0.00000000E+00   0.00000000E+00  -1.00868592E+00  -1.00868592E+00  -1.00868592E+00
energy  -4.82744219E-01
comment r =   1.38709677E+00, E =  -4.82744219E-01, dEdr =   1.74709526E+00
end
begin
atom   0.00000000E+00   0.00000000E+00   0.00000000E+00 H    0.00000000E+00   0.00000000E+00   9.01948548E-01   9.01948548E-01   9.01948548E-01
atom   8.19464898E-01   8.19464898E-01   8.19464898E-01 H    0.00000000E+00   0.00000000E+00  -9.01948548E-01  -9.01948548E-01  -9.01948548E-01
energy  -4.29394365E-01
comment r =   1.41935484E+00, E =  -4.29394365E-01, dEdr =   1.56222071E+00
end
begin
atom   0.00000000E+00   0.00000000E+00   0.00000000E+00 H    0.00000000E+00   0.00000000E+00   8.02140382E-01   8.02140382E-01   8.02140382E-01
atom   8.38089100E-01   8.38089100E-01   8.38089100E-01 H    0.00000000E+00   0.00000000E+00  -8.02140382E-01  -8.02140382E-01  -8.02140382E-01
energy  -3.81825606E-01
comment r =   1.45161290E+00, E =  -3.81825606E-01, dEdr =   1.38934790E+00
end
begin
atom   0.00000000E+00   0.00000000E+00   0.00000000E+00 H    0.00000000E+00   0.00000000E+00   7.10855472E-01   7.10855472E-01   7.10855472E-01
atom   8.56713303E-01   8.56713303E-01   8.56713303E-01 H    0.00000000E+00   0.00000000E+00  -7.10855472E-01  -7.10855472E-01  -7.10855472E-01
energy  -3.39599607E-01
comment r =   1.48387097E+00, E =  -3.39599607E-01, dEdr =   1.23123779E+00
end
begin
atom   0.00000000E+00   0.00000000E+00   0.00000000E+00 H    0.00000000E+00   0.00000000E+00   6.28573164E-01   6.28573164E-01   6.28573164E-01
atom   8.75337505E-01   8.75337505E-01   8.75337505E-01 H    0.00000000E+00   0.00000000E+00  -6.28573164E-01  -6.28573164E-01  -6.28573164E-01
energy  -3.02222857E-01
comment r =   1.51612903E+00, E =  -3.02222857E-01, dEdr =   1.08872066E+00
end
begin
atom   0.00000000E+00   0.00000000E+00   0.00000000E+00 H    0.00000000E+00   0.00000000E+00   5.55129931E-01   5.55129931E-01   5.55129931E-01
atom   8.93961707E-01   8.93961707E-01   8.93961707E-01 H    0.00000000E+00   0.00000000E+00  -5.55129931E-01  -5.55129931E-01  -5.55129931E-01
energy  -2.69194734E-01
comment r =   1.54838710E+00, E =  -2.69194734E-01, dEdr =   9.61513244E-01
end
begin
atom   0.00000000E+00   0.00000000E+00   0.00000000E+00 H    0.00000000E+00   0.00000000E+00   4.90012122E-01   4.90012122E-01   4.90012122E-01
atom   9.12585909E-01   9.12585909E-01   9.12585909E-01 H    0.00000000E+00   0.00000000E+00  -4.90012122E-01  -4.90012122E-01  -4.90012122E-01
energy  -2.40034589E-01
comment r =   1.58064516E+00, E =  -2.40034589E-01, dEdr =   8.48725892E-01
end
begin
atom   0.00000000E+00   0.00000000E+00   0.00000000E+00 H    0.00000000E+00   0.00000000E+00   4.32535699E-01   4.32535699E-01   4.32535699E-01
atom   9.31210112E-01   9.31210112E-01   9.31210112E-01 H    0.00000000E+00   0.00000000E+00  -4.32535699E-01  -4.32535699E-01  -4.32535699E-01
energy  -2.14295875E-01
comment r =   1.61290323E+00, E =  -2.14295875E-01, dEdr =   7.49173807E-01
end
begin
atom   0.00000000E+00   0.00000000E+00   0.00000000E+00 H    0.00000000E+00   0.00000000E+00   3.81954658E-01   3.81954658E-01   3.81954658E-01
atom   9.49834314E-01   9.49834314E-01   9.49834314E-01 H    0.00000000E+00   0.00000000E+00  -3.81954658E-01  -3.81954658E-01  -3.81954658E-01
energy  -1.91572378E-01
comment r =   1.64516129E+00, E =  -1.91572378E-01, dEdr =   6.61564874E-01
end
begin
atom   0.00000000E+00   0.00000000E+00   0.00000000E+00 H    0.00000000E+00   0.00000000E+00   3.37524569E-01   3.37524569E-01   3.37524569E-01
atom   9.68458516E-01   9.68458516E-01   9.68458516E-01 H    0.00000000E+00   0.00000000E+00  -3.37524569E-01  -3.37524569E-01  -3.37524569E-01
energy  -1.71499738E-01
comment r =   1.67741935E+00, E =  -1.71499738E-01, dEdr =   5.84609701E-01
end
begin
atom   0.00000000E+00   0.00000000E+00   0.00000000E+00 H    0.00000000E+00   0.00000000E+00   2.98538006E-01   2.98538006E-01   2.98538006E-01
atom   9.87082718E-01   9.87082718E-01   9.87082718E-01 H    0.00000000E+00   0.00000000E+00  -2.98538006E-01  -2.98538006E-01  -2.98538006E-01
energy  -1.53754276E-01
comment r =   1.70967742E+00, E =  -1.53754276E-01, dEdr =   5.17082994E-01
end
begin
atom   0.00000000E+00   0.00000000E+00   0.00000000E+00 H    0.00000000E+00   0.00000000E+00   2.64342565E-01   2.64342565E-01   2.64342565E-01
atom   1.00570692E+00   1.00570692E+00   1.00570692E+00 H    0.00000000E+00   0.00000000E+00  -2.64342565E-01  -2.64342565E-01  -2.64342565E-01
energy  -1.38050353E-01
comment r =   1.74193548E+00, E =  -1.38050353E-01, dEdr =   4.57854754E-01
end
begin
atom   0.00000000E+00   0.00000000E+00   0.00000000E+00 H    0.00000000E+00   0.00000000E+00   2.34348253E-01   2.34348253E-01   2.34348253E-01
atom   1.02433112E+00   1.02433112E+00   1.02433112E+00 H    0.00000000E+00   0.00000000E+00  -2.34348253E-01  -2.34348253E-01  -2.34348253E-01
energy  -1.24137057E-01
comment r =   1.77419355E+00, E =  -1.24137057E-01, dEdr =   4.05903081E-01
end
begin
atom   0.00000000E+00   0.00000000E+00   0.00000000E+00 H    0.00000000E+00   0.00000000E+00   2.08028565E-01   2.08028565E-01   2.08028565E-01
atom   1.04295532E+00   1.04295532E+00   1.04295532E+00 H    0.00000000E+00   0.00000000E+00  -2.08028565E-01  -2.08028565E-01  -2.08028565E-01
energy  -1.11794659E-01
comment r =   1.80645161E+00, E =  -1.11794659E-01, dEdr =   3.60316043E-01
end
begin
atom   0.00000000E+00   0.00000000E+00   0.00000000E+00 H    0.00000000E+00   0.00000000E+00   1.84917968E-01   1.84917968E-01   1.84917968E-01
atom   1.06157953E+00   1.06157953E+00   1.06157953E+00 H    0.00000000E+00   0.00000000E+00  -1.84917968E-01  -1.84917968E-01  -1.84917968E-01
energy  -1.00831129E-01
comment r =   1.83870968E+00, E =  -1.00831129E-01, dEdr =   3.20287316E-01
end
begin
atom   0.00000000E+00   0.00000000E+00   0.00000000E+00 H    0.00000000E+00   0.00000000E+00   1.64607501E-01   1.64607501E-01   1.64607501E-01
atom   1.08020373E+00   1.08020373E+00   1.08020373E+00 H    0.00000000E+00   0.00000000E+00  -1.64607501E-01  -1.64607501E-01  -1.64607501E-01
energy  -9.10788427E-02
comment r =   1.87096774E+00, E =  -9.10788427E-02, dEdr =   2.85108556E-01
end
begin
atom   0.00000000E+00   0.00000000E+00   0.00000000E+00 H    0.00000000E+00   0.00000000E+00   1.46739518E-01   1.46739518E-01   1.46739518E-01
atom   1.09882793E+00   1.09882793E+00   1.09882793E+00 H    0.00000000E+00   0.00000000E+00  -1.46739518E-01  -1.46739518E-01  -1.46739518E-01
energy  -8.23915676E-02
comment r =   1.90322581E+00, E =  -8.23915676E-02, dEdr =   2.54160300E-01
end
begin
atom   0.00000000E+00   0.00000000E+00   0.00000000E+00 H    0.00000000E+00   0.00000000E+00   1.31002224E-01   1.31002224E-01   1.31002224E-01
atom   1.11745213E+00   1.11745213E+00   1.11745213E+00 H    0.00000000E+00   0.00000000E+00  -1.31002224E-01  -1.31002224E-01  -1.31002224E-01
energy  -7.46417467E-02
comment r =   1.93548387E+00, E =  -7.46417467E-02, dEdr =   2.26902509E-01
end
begin
atom   0.00000000E+00   0.00000000E+00   0.00000000E+00 H    0.00000000E+00   0.00000000E+00   1.17124367E-01   1.17124367E-01   1.17124367E-01
atom   1.13607634E+00   1.13607634E+00   1.13607634E+00 H    0.00000000E+00   0.00000000E+00  -1.17124367E-01  -1.17124367E-01  -1.17124367E-01
energy  -6.77180876E-02
comment r =   1.96774194E+00, E =  -6.77180876E-02, dEdr =   2.02865354E-01
end
begin
atom   0.00000000E+00   0.00000000E+00   0.00000000E+00 H    0.00000000E+00   0.00000000E+00   1.04870264E-01   1.04870264E-01   1.04870264E-01
atom   1.15470054E+00   1.15470054E+00   1.15470054E+00 H    0.00000000E+00   0.00000000E+00  -1.04870264E-01  -1.04870264E-01  -1.04870264E-01
energy  -6.15234375E-02
comment r =   2.00000000E+00, E =  -6.15234375E-02, dEdr =   1.81640625E-01
end
