begin
lattice 7.1142 0.0000 0.0000
lattice 0.0000 7.1142 0.0000
lattice 0.0000 0.0000 7.1142
atom  0.544077    -3.475781    -2.618007 O  0.0 0.0 0.0 0.0 0.0
atom  1.081703    -3.556415    -1.778688 H  0.0 0.0 0.0 0.0 0.0
atom  1.083753    -3.004392    -3.315533 H  0.0 0.0 0.0 0.0 0.0
atom -1.191307     2.646627     1.223969 O  0.0 0.0 0.0 0.0 0.0
atom -1.724920     2.459640     0.399170 H  0.0 0.0 0.0 0.0 0.0
atom -0.719194     3.522487     1.124081 H  0.0 0.0 0.0 0.0 0.0
atom -2.931925     1.598787    -3.456225 O  0.0 0.0 0.0 0.0 0.0
atom -2.428998     1.041042     2.997688 H  0.0 0.0 0.0 0.0 0.0
atom -3.038337     1.089462    -2.602255 H  0.0 0.0 0.0 0.0 0.0
atom -2.947261    -1.617169    -1.266127 O  0.0 0.0 0.0 0.0 0.0
atom -2.241175    -2.258399    -0.965683 H  0.0 0.0 0.0 0.0 0.0
atom -2.823269    -1.416117    -2.237829 H  0.0 0.0 0.0 0.0 0.0
atom  2.058883    -2.737490     0.983363 O  0.0 0.0 0.0 0.0 0.0
atom  1.934859    -3.121965     0.068597 H  0.0 0.0 0.0 0.0 0.0
atom  2.139471    -3.479642     1.648732 H  0.0 0.0 0.0 0.0 0.0
atom  2.533993    -0.743316     3.466309 O  0.0 0.0 0.0 0.0 0.0
atom  2.483157     0.058869     2.871402 H  0.0 0.0 0.0 0.0 0.0
atom  2.962327    -0.488699    -2.780889 H  0.0 0.0 0.0 0.0 0.0
atom  2.592498     1.794439    -0.178947 O  0.0 0.0 0.0 0.0 0.0
atom  2.122268     1.276868    -0.893792 H  0.0 0.0 0.0 0.0 0.0
atom  1.918028     2.261622     0.392743 H  0.0 0.0 0.0 0.0 0.0
atom -1.135168    -0.397887     2.351273 O  0.0 0.0 0.0 0.0 0.0
atom -1.102596    -0.145078     3.318241 H  0.0 0.0 0.0 0.0 0.0
atom -0.237429    -0.731470     2.063547 H  0.0 0.0 0.0 0.0 0.0
atom -0.359413     0.081378    -1.756088 O  0.0 0.0 0.0 0.0 0.0
atom -1.161017     0.672602    -1.844886 H  0.0 0.0 0.0 0.0 0.0
atom  0.447276     0.640221    -1.563866 H  0.0 0.0 0.0 0.0 0.0
atom -2.457273    -2.790500     3.260410 O  0.0 0.0 0.0 0.0 0.0
atom -3.151585    -3.426150    -3.516333 H  0.0 0.0 0.0 0.0 0.0
atom -2.501820    -1.939593    -3.330369 H  0.0 0.0 0.0 0.0 0.0
atom  1.659226     1.974005     2.566723 O  0.0 0.0 0.0 0.0 0.0
atom  1.365996     1.154625     2.074144 H  0.0 0.0 0.0 0.0 0.0
atom  2.578998     2.230303     2.269518 H  0.0 0.0 0.0 0.0 0.0
atom -0.395367    -2.086709    -0.067560 O  0.0 0.0 0.0 0.0 0.0
atom -0.713219    -2.709677     0.647199 H  0.0 0.0 0.0 0.0 0.0
atom -1.068895    -1.359421    -0.199518 H  0.0 0.0 0.0 0.0 0.0
energy 0.0
charge 0.0
end
