begin
comment 12.4297
comment Values for ['energy', 'charge', 'force of atom'] were set to default values
lattice 23.48872712 0.0 0.0
lattice 0.0 23.48872712 0.0
lattice 0.0 0.0 23.48872712
atom    -3.183809   -11.452264     0.195318  O      0.000000     0.000000    99.999999    99.999999    99.999999
atom    -3.788472    10.286042     0.571793  H      0.000000     0.000000    99.999999    99.999999    99.999999
atom    -2.479479   -10.677223     1.768307  H      0.000000     0.000000    99.999999    99.999999    99.999999
atom    -5.445773    -1.059129    -0.037139  O      0.000000     0.000000    99.999999    99.999999    99.999999
atom    -6.128503    -2.716651    -0.635103  H      0.000000     0.000000    99.999999    99.999999    99.999999
atom    -4.099224    -0.467594    -1.223713  H      0.000000     0.000000    99.999999    99.999999    99.999999
atom    -4.025986     2.073946    10.249672  O      0.000000     0.000000    99.999999    99.999999    99.999999
atom    -5.116721     0.771777     9.421592  H      0.000000     0.000000    99.999999    99.999999    99.999999
atom    -4.175044     3.708470     9.313096  H      0.000000     0.000000    99.999999    99.999999    99.999999
atom    -2.056326    -5.609854    -5.358509  O      0.000000     0.000000    99.999999    99.999999    99.999999
atom    -0.940573    -6.724959    -4.317981  H      0.000000     0.000000    99.999999    99.999999    99.999999
atom    -3.801885    -5.613492    -4.634578  H      0.000000     0.000000    99.999999    99.999999    99.999999
atom    -8.875437     3.400940    -7.729698  O      0.000000     0.000000    99.999999    99.999999    99.999999
atom    -9.953917     2.832408    -6.285843  H      0.000000     0.000000    99.999999    99.999999    99.999999
atom    -7.210978     2.508708    -7.662140  H      0.000000     0.000000    99.999999    99.999999    99.999999
atom    -7.776172     8.995293    -6.773791  O      0.000000     0.000000    99.999999    99.999999    99.999999
atom    -8.718573     9.732388    -8.236539  H      0.000000     0.000000    99.999999    99.999999    99.999999
atom    -5.918902     9.087778    -7.110034  H      0.000000     0.000000    99.999999    99.999999    99.999999
atom    -4.639603   -10.269605    -7.132047  O      0.000000     0.000000    99.999999    99.999999    99.999999
atom    -5.599291    -9.522893    -8.578589  H      0.000000     0.000000    99.999999    99.999999    99.999999
atom    -2.837526    -9.706724    -7.214201  H      0.000000     0.000000    99.999999    99.999999    99.999999
atom     6.243498   -11.653918     9.214649  O      0.000000     0.000000    99.999999    99.999999    99.999999
atom     5.117388   -11.149371    10.645863  H      0.000000     0.000000    99.999999    99.999999    99.999999
atom     7.662994    10.775381     9.873335  H      0.000000     0.000000    99.999999    99.999999    99.999999
atom    11.668059     8.465043     6.405365  O      0.000000     0.000000    99.999999    99.999999    99.999999
atom   -10.199383     9.389410     6.702484  H      0.000000     0.000000    99.999999    99.999999    99.999999
atom    10.493207     9.558535     5.407833  H      0.000000     0.000000    99.999999    99.999999    99.999999
atom    -4.645621    10.957140     5.424612  O      0.000000     0.000000    99.999999    99.999999    99.999999
atom    -3.374416    10.787292     4.036718  H      0.000000     0.000000    99.999999    99.999999    99.999999
atom    -6.138159   -11.557729     4.796010  H      0.000000     0.000000    99.999999    99.999999    99.999999
atom    -8.545869     5.111690     2.510501  O      0.000000     0.000000    99.999999    99.999999    99.999999
atom    -8.577304     3.766625     1.183522  H      0.000000     0.000000    99.999999    99.999999    99.999999
atom    -7.534461     4.513084     3.990295  H      0.000000     0.000000    99.999999    99.999999    99.999999
atom     2.535786    -4.675046     5.527337  O      0.000000     0.000000    99.999999    99.999999    99.999999
atom     3.973174    -5.424211     6.498796  H      0.000000     0.000000    99.999999    99.999999    99.999999
atom     2.684494    -2.791195     5.534836  H      0.000000     0.000000    99.999999    99.999999    99.999999
atom     8.243702     2.794338     2.976349  O      0.000000     0.000000    99.999999    99.999999    99.999999
atom     8.314411     1.226716     4.029259  H      0.000000     0.000000    99.999999    99.999999    99.999999
atom     6.461673     3.417715     2.893666  H      0.000000     0.000000    99.999999    99.999999    99.999999
atom     7.928399    10.932213    -3.313518  O      0.000000     0.000000    99.999999    99.999999    99.999999
atom     8.502775     9.671626    -4.598849  H      0.000000     0.000000    99.999999    99.999999    99.999999
atom     7.523028    10.042727    -1.696250  H      0.000000     0.000000    99.999999    99.999999    99.999999
atom   -11.551444    -5.144777     3.002792  O      0.000000     0.000000    99.999999    99.999999    99.999999
atom   -11.159239    -3.980094     1.567259  H      0.000000     0.000000    99.999999    99.999999    99.999999
atom   -10.182712    -5.028183     4.300499  H      0.000000     0.000000    99.999999    99.999999    99.999999
atom     8.353071    -4.848459     7.513273  O      0.000000     0.000000    99.999999    99.999999    99.999999
atom     6.684763    -4.917215     6.628352  H      0.000000     0.000000    99.999999    99.999999    99.999999
atom     8.867315    -3.045362     7.748765  H      0.000000     0.000000    99.999999    99.999999    99.999999
atom     4.254134    -7.169804    -5.421662  O      0.000000     0.000000    99.999999    99.999999    99.999999
atom     4.954811    -7.041448    -7.171989  H      0.000000     0.000000    99.999999    99.999999    99.999999
atom     5.190057    -8.503786    -4.464792  H      0.000000     0.000000    99.999999    99.999999    99.999999
atom     3.982084    -2.808399    -8.254460  O      0.000000     0.000000    99.999999    99.999999    99.999999
atom     2.493734    -3.620885    -7.420348  H      0.000000     0.000000    99.999999    99.999999    99.999999
atom     5.502786    -3.909696    -8.040743  H      0.000000     0.000000    99.999999    99.999999    99.999999
atom   -11.524774   -10.910043     1.421800  O      0.000000     0.000000    99.999999    99.999999    99.999999
atom   -11.313928    -9.773972    -0.073510  H      0.000000     0.000000    99.999999    99.999999    99.999999
atom   -11.716075    -9.865149     2.984703  H      0.000000     0.000000    99.999999    99.999999    99.999999
atom     3.291587    -0.665029    -0.446899  O      0.000000     0.000000    99.999999    99.999999    99.999999
atom     1.916823     0.230303    -1.384701  H      0.000000     0.000000    99.999999    99.999999    99.999999
atom     2.808974    -2.475093    -0.198280  H      0.000000     0.000000    99.999999    99.999999    99.999999
atom    -6.015875   -10.195061    10.319112  O      0.000000     0.000000    99.999999    99.999999    99.999999
atom    -4.427341    -9.321811     9.785202  H      0.000000     0.000000    99.999999    99.999999    99.999999
atom    -7.505737    -9.305327     9.570947  H      0.000000     0.000000    99.999999    99.999999    99.999999
atom    -9.183803    -6.109124     9.747200  O      0.000000     0.000000    99.999999    99.999999    99.999999
atom   -10.719437    -5.108034     9.288170  H      0.000000     0.000000    99.999999    99.999999    99.999999
atom    -8.646315    -5.667927    11.504333  H      0.000000     0.000000    99.999999    99.999999    99.999999
atom     9.623833   -10.529367    -9.272860  O      0.000000     0.000000    99.999999    99.999999    99.999999
atom    11.469532   -10.252917    -9.569569  H      0.000000     0.000000    99.999999    99.999999    99.999999
atom     8.663444   -10.111070   -10.845675  H      0.000000     0.000000    99.999999    99.999999    99.999999
atom     0.407419     4.956351   -11.451100  O      0.000000     0.000000    99.999999    99.999999    99.999999
atom    -0.952042     5.326072    10.778095  H      0.000000     0.000000    99.999999    99.999999    99.999999
atom     1.000625     3.175443   -11.669127  H      0.000000     0.000000    99.999999    99.999999    99.999999
atom     9.687617     6.274278    -6.293795  O      0.000000     0.000000    99.999999    99.999999    99.999999
atom    10.756535     4.955393    -5.463722  H      0.000000     0.000000    99.999999    99.999999    99.999999
atom    10.792676     7.463916    -7.260581  H      0.000000     0.000000    99.999999    99.999999    99.999999
atom   -10.231470    -0.101989     4.625343  O      0.000000     0.000000    99.999999    99.999999    99.999999
atom   -11.268836     0.575864     3.198649  H      0.000000     0.000000    99.999999    99.999999    99.999999
atom   -10.731076     0.758655     6.231816  H      0.000000     0.000000    99.999999    99.999999    99.999999
atom    11.639929     2.358960    -2.039685  O      0.000000     0.000000    99.999999    99.999999    99.999999
atom    11.688007     3.793117    -3.269300  H      0.000000     0.000000    99.999999    99.999999    99.999999
atom    10.230176     2.629917    -0.810766  H      0.000000     0.000000    99.999999    99.999999    99.999999
atom     3.261163    10.341097    -1.190000  O      0.000000     0.000000    99.999999    99.999999    99.999999
atom     1.620009    10.214183    -0.261791  H      0.000000     0.000000    99.999999    99.999999    99.999999
atom     4.600735    10.974562    -0.017253  H      0.000000     0.000000    99.999999    99.999999    99.999999
atom     1.564756     5.346455     7.067374  O      0.000000     0.000000    99.999999    99.999999    99.999999
atom     1.643346     5.037445     8.930007  H      0.000000     0.000000    99.999999    99.999999    99.999999
atom     3.311802     5.307141     6.348104  H      0.000000     0.000000    99.999999    99.999999    99.999999
atom   -10.252928     3.642757     9.449986  O      0.000000     0.000000    99.999999    99.999999    99.999999
atom    -9.477145     5.365809     9.432232  H      0.000000     0.000000    99.999999    99.999999    99.999999
atom   -11.566199     3.557217    10.806108  H      0.000000     0.000000    99.999999    99.999999    99.999999
atom     3.594720    11.086732     4.643821  O      0.000000     0.000000    99.999999    99.999999    99.999999
atom     3.518472   -11.483743     6.293729  H      0.000000     0.000000    99.999999    99.999999    99.999999
atom     5.384147    11.024893     4.039507  H      0.000000     0.000000    99.999999    99.999999    99.999999
atom    11.590388    -4.279379    -8.286421  O      0.000000     0.000000    99.999999    99.999999    99.999999
atom   -11.042480    -3.831902    -6.662086  H      0.000000     0.000000    99.999999    99.999999    99.999999
atom   -10.841703    -5.528904    -9.231631  H      0.000000     0.000000    99.999999    99.999999    99.999999
atom     4.481268    11.471222    -9.037213  O      0.000000     0.000000    99.999999    99.999999    99.999999
atom     5.004728    10.065292    -7.888119  H      0.000000     0.000000    99.999999    99.999999    99.999999
atom     5.582398   -10.512117    -8.732899  H      0.000000     0.000000    99.999999    99.999999    99.999999
atom    -6.285845    -5.958966     1.725333  O      0.000000     0.000000    99.999999    99.999999    99.999999
atom    -7.933365    -5.781421     0.816913  H      0.000000     0.000000    99.999999    99.999999    99.999999
atom    -6.594402    -5.988370     3.589467  H      0.000000     0.000000    99.999999    99.999999    99.999999
atom    -4.110336     6.988808    -0.262422  O      0.000000     0.000000    99.999999    99.999999    99.999999
atom    -2.961027     5.621776    -0.879979  H      0.000000     0.000000    99.999999    99.999999    99.999999
atom    -3.958356     7.139081     1.615177  H      0.000000     0.000000    99.999999    99.999999    99.999999
atom    -1.682009    -3.364689    10.813332  O      0.000000     0.000000    99.999999    99.999999    99.999999
atom    -0.287121    -3.588981     9.558325  H      0.000000     0.000000    99.999999    99.999999    99.999999
atom    -3.255987    -4.179674    10.158000  H      0.000000     0.000000    99.999999    99.999999    99.999999
atom    -4.074688     7.296979    10.339688  O      0.000000     0.000000    99.999999    99.999999    99.999999
atom    -5.536646     7.629973    11.489841  H      0.000000     0.000000    99.999999    99.999999    99.999999
atom    -4.628400     6.170396     8.927144  H      0.000000     0.000000    99.999999    99.999999    99.999999
atom     6.652662     3.784386    10.913183  O      0.000000     0.000000    99.999999    99.999999    99.999999
atom     8.536679     3.638974    10.933190  H      0.000000     0.000000    99.999999    99.999999    99.999999
atom     6.150492     5.331203     9.950767  H      0.000000     0.000000    99.999999    99.999999    99.999999
atom     8.105154    -4.421460    -1.225334  O      0.000000     0.000000    99.999999    99.999999    99.999999
atom     9.192174    -3.440018    -2.419581  H      0.000000     0.000000    99.999999    99.999999    99.999999
atom     6.987589    -3.234151    -0.270133  H      0.000000     0.000000    99.999999    99.999999    99.999999
atom     1.562363     4.563063     1.474209  O      0.000000     0.000000    99.999999    99.999999    99.999999
atom     0.162161     5.235086     2.550726  H      0.000000     0.000000    99.999999    99.999999    99.999999
atom     0.833044     3.598307     0.022176  H      0.000000     0.000000    99.999999    99.999999    99.999999
atom     1.443087    -7.370240    10.154954  O      0.000000     0.000000    99.999999    99.999999    99.999999
atom     0.064445    -8.650437     9.977457  H      0.000000     0.000000    99.999999    99.999999    99.999999
atom     0.984330    -6.134130    11.508702  H      0.000000     0.000000    99.999999    99.999999    99.999999
atom     3.179668     4.126841    -4.135469  O      0.000000     0.000000    99.999999    99.999999    99.999999
atom     2.086643     3.050335    -5.238873  H      0.000000     0.000000    99.999999    99.999999    99.999999
atom     2.103955     5.371201    -3.205161  H      0.000000     0.000000    99.999999    99.999999    99.999999
atom    -3.525949     0.900664    -6.351428  O      0.000000     0.000000    99.999999    99.999999    99.999999
atom    -4.894674    -0.378612    -6.598631  H      0.000000     0.000000    99.999999    99.999999    99.999999
atom    -4.258721     2.638369    -6.471807  H      0.000000     0.000000    99.999999    99.999999    99.999999
atom   -10.301623     9.372507    11.399421  O      0.000000     0.000000    99.999999    99.999999    99.999999
atom   -10.166252     8.401014     9.784201  H      0.000000     0.000000    99.999999    99.999999    99.999999
atom   -11.544628    10.779756    11.185758  H      0.000000     0.000000    99.999999    99.999999    99.999999
atom    -4.988913    -0.148667     5.217738  O      0.000000     0.000000    99.999999    99.999999    99.999999
atom    -4.915737     0.510642     3.448268  H      0.000000     0.000000    99.999999    99.999999    99.999999
atom    -6.033960     1.013317     6.280157  H      0.000000     0.000000    99.999999    99.999999    99.999999
atom     2.801058    -0.693067     8.820820  O      0.000000     0.000000    99.999999    99.999999    99.999999
atom     3.473056     0.432804     7.459974  H      0.000000     0.000000    99.999999    99.999999    99.999999
atom     3.826641    -0.464026    10.391419  H      0.000000     0.000000    99.999999    99.999999    99.999999
atom    -1.396373     8.293005    -5.940411  O      0.000000     0.000000    99.999999    99.999999    99.999999
atom    -1.101605     6.705111    -6.921621  H      0.000000     0.000000    99.999999    99.999999    99.999999
atom    -0.404810     8.233301    -4.332836  H      0.000000     0.000000    99.999999    99.999999    99.999999
atom    -7.020338    -1.917823   -10.072554  O      0.000000     0.000000    99.999999    99.999999    99.999999
atom    -6.075073    -1.023555    -8.702217  H      0.000000     0.000000    99.999999    99.999999    99.999999
atom    -5.825207    -2.387820   -11.458853  H      0.000000     0.000000    99.999999    99.999999    99.999999
atom     0.756297    -7.729144    -1.345118  O      0.000000     0.000000    99.999999    99.999999    99.999999
atom     1.218968    -7.923814     0.476721  H      0.000000     0.000000    99.999999    99.999999    99.999999
atom     1.642074    -9.050898    -2.364645  H      0.000000     0.000000    99.999999    99.999999    99.999999
atom   -10.637818    -7.510123    -3.138748  O      0.000000     0.000000    99.999999    99.999999    99.999999
atom    -9.348481    -8.281118    -4.285152  H      0.000000     0.000000    99.999999    99.999999    99.999999
atom   -10.229653    -5.684831    -2.868986  H      0.000000     0.000000    99.999999    99.999999    99.999999
atom     7.736348    -8.784413     3.835382  O      0.000000     0.000000    99.999999    99.999999    99.999999
atom     6.431998    -8.248018     5.093163  H      0.000000     0.000000    99.999999    99.999999    99.999999
atom     7.859862   -10.670046     3.821281  H      0.000000     0.000000    99.999999    99.999999    99.999999
atom    10.271627    -0.255062    11.299402  O      0.000000     0.000000    99.999999    99.999999    99.999999
atom     9.787625    -2.079260    11.203952  H      0.000000     0.000000    99.999999    99.999999    99.999999
atom    11.099945     0.262315     9.681604  H      0.000000     0.000000    99.999999    99.999999    99.999999
atom    -0.511398    10.991360     9.262685  O      0.000000     0.000000    99.999999    99.999999    99.999999
atom     0.745196   -11.085899     9.264363  H      0.000000     0.000000    99.999999    99.999999    99.999999
atom    -1.621557    11.134606    10.785213  H      0.000000     0.000000    99.999999    99.999999    99.999999
atom    -0.998677    -2.100062     2.702080  O      0.000000     0.000000    99.999999    99.999999    99.999999
atom    -2.262773    -1.145178     1.671875  H      0.000000     0.000000    99.999999    99.999999    99.999999
atom    -1.358297    -3.951412     2.582736  H      0.000000     0.000000    99.999999    99.999999    99.999999
atom   -10.650232     8.036155    -2.553377  O      0.000000     0.000000    99.999999    99.999999    99.999999
atom   -11.477170     9.115916    -1.241372  H      0.000000     0.000000    99.999999    99.999999    99.999999
atom   -10.642227     8.949849    -4.207513  H      0.000000     0.000000    99.999999    99.999999    99.999999
atom    -2.964969     4.703041     4.720268  O      0.000000     0.000000    99.999999    99.999999    99.999999
atom    -4.403408     5.513034     5.639976  H      0.000000     0.000000    99.999999    99.999999    99.999999
atom    -3.443257     4.438084     2.911371  H      0.000000     0.000000    99.999999    99.999999    99.999999
atom     7.990261     7.556178     0.631584  O      0.000000     0.000000    99.999999    99.999999    99.999999
atom     9.050516     8.378991     1.961961  H      0.000000     0.000000    99.999999    99.999999    99.999999
atom     9.106362     6.886574    -0.738458  H      0.000000     0.000000    99.999999    99.999999    99.999999
atom    -0.780275    -9.283461     4.554769  O      0.000000     0.000000    99.999999    99.999999    99.999999
atom    -1.752940    -9.836015     6.077817  H      0.000000     0.000000    99.999999    99.999999    99.999999
atom    -0.863962   -10.629811     3.231364  H      0.000000     0.000000    99.999999    99.999999    99.999999
atom    11.141561   -10.220841     8.144531  O      0.000000     0.000000    99.999999    99.999999    99.999999
atom    10.275977    11.713757     7.506767  H      0.000000     0.000000    99.999999    99.999999    99.999999
atom   -11.528701   -10.592892     9.806720  H      0.000000     0.000000    99.999999    99.999999    99.999999
atom     8.034858    -0.570542    -6.009800  O      0.000000     0.000000    99.999999    99.999999    99.999999
atom     7.732973    -2.118147    -4.968239  H      0.000000     0.000000    99.999999    99.999999    99.999999
atom     9.202312     0.592941    -5.085450  H      0.000000     0.000000    99.999999    99.999999    99.999999
atom    -8.301586    -0.776328    -4.665598  O      0.000000     0.000000    99.999999    99.999999    99.999999
atom    -9.879947    -1.696031    -5.149317  H      0.000000     0.000000    99.999999    99.999999    99.999999
atom    -7.378048    -1.762117    -3.344095  H      0.000000     0.000000    99.999999    99.999999    99.999999
atom     6.598591     7.162722     6.716372  O      0.000000     0.000000    99.999999    99.999999    99.999999
atom     5.816456     5.957518     7.943897  H      0.000000     0.000000    99.999999    99.999999    99.999999
atom     5.252755     8.250750     5.957435  H      0.000000     0.000000    99.999999    99.999999    99.999999
atom     6.214128    -6.552438   -11.577560  O      0.000000     0.000000    99.999999    99.999999    99.999999
atom     6.373447    -8.005318   -10.379719  H      0.000000     0.000000    99.999999    99.999999    99.999999
atom     6.215215    -7.197487    10.134870  H      0.000000     0.000000    99.999999    99.999999    99.999999
atom    -4.568534    -5.296498     6.571368  O      0.000000     0.000000    99.999999    99.999999    99.999999
atom    -4.938174    -6.493777     5.156819  H      0.000000     0.000000    99.999999    99.999999    99.999999
atom    -3.333089    -3.991943     5.985808  H      0.000000     0.000000    99.999999    99.999999    99.999999
energy  99.999999
charge  0.0
end
