begin
comment 19.7309
comment Values for ['energy', 'charge', 'force of atom'] were set to default values
lattice 3.72859974E+01   0.00000000E+00   0.00000000E+00
lattice 0.00000000E+00   3.72859974E+01   0.00000000E+00
lattice 0.00000000E+00   0.00000000E+00   3.72859974E+01
atom   1.53938829E+01   1.54500532E+01   1.79583377E+01  O      0.000000     0.000000    99.999999    99.999999    99.999999
atom   1.64321382E+01   1.39497977E+01   1.84505962E+01  H      0.000000     0.000000    99.999999    99.999999    99.999999
atom   1.40701260E+01   1.49203894E+01   1.67181010E+01  H      0.000000     0.000000    99.999999    99.999999    99.999999
atom  -1.22632077E+00  -4.42312511E+00  -1.32033294E+01  O      0.000000     0.000000    99.999999    99.999999    99.999999
atom  -2.38315252E+00  -5.89155192E+00  -1.34799683E+01  H      0.000000     0.000000    99.999999    99.999999    99.999999
atom   9.01645030E-02  -4.88948873E+00  -1.19303645E+01  H      0.000000     0.000000    99.999999    99.999999    99.999999
atom   2.75489378E+00   1.80380482E+01   2.34471171E+00  O      0.000000     0.000000    99.999999    99.999999    99.999999
atom   3.30761789E+00   1.79959470E+01   4.15130690E+00  H      0.000000     0.000000    99.999999    99.999999    99.999999
atom   3.24890221E+00   1.64229522E+01   1.49707695E+00  H      0.000000     0.000000    99.999999    99.999999    99.999999
atom   5.76548640E+00   1.31657522E+01   1.72147418E+01  O      0.000000     0.000000    99.999999    99.999999    99.999999
atom   5.89489107E+00   1.46851903E+01   1.83308197E+01  H      0.000000     0.000000    99.999999    99.999999    99.999999
atom   6.52537551E+00   1.16739211E+01   1.80911420E+01  H      0.000000     0.000000    99.999999    99.999999    99.999999
atom   1.02265270E+01   1.55838004E+01   2.34035212E+00  O      0.000000     0.000000    99.999999    99.999999    99.999999
atom   9.52879285E+00   1.67043305E+01   9.88079213E-01  H      0.000000     0.000000    99.999999    99.999999    99.999999
atom   8.97402784E+00   1.42271698E+01   2.74267292E+00  H      0.000000     0.000000    99.999999    99.999999    99.999999
atom  -5.90439261E-01   8.60844142E+00  -9.01081513E+00  O      0.000000     0.000000    99.999999    99.999999    99.999999
atom   1.05057057E+00   8.07631344E+00  -8.23945727E+00  H      0.000000     0.000000    99.999999    99.999999    99.999999
atom  -2.58745082E-01   9.81292829E+00  -1.04286483E+01  H      0.000000     0.000000    99.999999    99.999999    99.999999
atom  -5.19078100E+00   2.96370852E+00  -8.34428605E+00  O      0.000000     0.000000    99.999999    99.999999    99.999999
atom  -3.57978569E+00   3.95121136E+00  -8.36876556E+00  H      0.000000     0.000000    99.999999    99.999999    99.999999
atom  -5.10738361E+00   1.59020076E+00  -9.63950245E+00  H      0.000000     0.000000    99.999999    99.999999    99.999999
atom   1.47978142E+01  -1.67523220E+01  -1.56200227E+00  O      0.000000     0.000000    99.999999    99.999999    99.999999
atom   1.47954142E+01  -1.81384966E+01  -2.77644233E-01  H      0.000000     0.000000    99.999999    99.999999    99.999999
atom   1.64241087E+01  -1.57960337E+01  -1.45361892E+00  H      0.000000     0.000000    99.999999    99.999999    99.999999
atom   1.10724837E+01  -6.59508751E-01   6.82885797E+00  O      0.000000     0.000000    99.999999    99.999999    99.999999
atom   1.11564348E+01  -2.49576319E+00   6.39046608E+00  H      0.000000     0.000000    99.999999    99.999999    99.999999
atom   1.18007898E+01   3.59777400E-01   5.41404458E+00  H      0.000000     0.000000    99.999999    99.999999    99.999999
atom   4.09210745E-01   5.75161392E+00   1.48050556E+01  O      0.000000     0.000000    99.999999    99.999999    99.999999
atom   2.00835180E+00   4.85048101E+00   1.43558696E+01  H      0.000000     0.000000    99.999999    99.999999    99.999999
atom  -5.97444476E-01   6.06756857E+00   1.32372916E+01  H      0.000000     0.000000    99.999999    99.999999    99.999999
atom   1.38275022E+01   4.02985232E+00  -1.40950761E+01  O      0.000000     0.000000    99.999999    99.999999    99.999999
atom   1.56255369E+01   4.60899857E+00  -1.41473175E+01  H      0.000000     0.000000    99.999999    99.999999    99.999999
atom   1.30548366E+01   4.52253415E+00  -1.24424066E+01  H      0.000000     0.000000    99.999999    99.999999    99.999999
atom  -8.48311100E+00   1.84011251E+01  -1.01638863E+01  O      0.000000     0.000000    99.999999    99.999999    99.999999
atom  -7.39987652E+00   1.69606114E+01  -1.07318511E+01  H      0.000000     0.000000    99.999999    99.999999    99.999999
atom  -7.40007683E+00  -1.75607185E+01  -9.36080375E+00  H      0.000000     0.000000    99.999999    99.999999    99.999999
atom  -3.02732237E+00  -1.71140288E+01   1.13119460E+01  O      0.000000     0.000000    99.999999    99.999999    99.999999
atom  -2.00919084E+00  -1.56313157E+01   1.07322574E+01  H      0.000000     0.000000    99.999999    99.999999    99.999999
atom  -2.10677063E+00  -1.80060627E+01   1.27004412E+01  H      0.000000     0.000000    99.999999    99.999999    99.999999
atom  -1.06561902E+01   5.65434972E+00   6.70337827E+00  O      0.000000     0.000000    99.999999    99.999999    99.999999
atom  -9.53148382E+00   5.59056012E+00   5.18613227E+00  H      0.000000     0.000000    99.999999    99.999999    99.999999
atom  -1.13814274E+01   3.93874106E+00   7.02240561E+00  H      0.000000     0.000000    99.999999    99.999999    99.999999
atom  -1.04359748E+00  -8.14057357E+00   1.23120382E+00  O      0.000000     0.000000    99.999999    99.999999    99.999999
atom  -1.07474583E+00  -9.95799689E+00   7.14418523E-01  H      0.000000     0.000000    99.999999    99.999999    99.999999
atom  -2.49855243E+00  -7.78867822E+00   2.38460761E+00  H      0.000000     0.000000    99.999999    99.999999    99.999999
atom  -7.69255163E+00  -3.57553003E+00   1.57600023E+01  O      0.000000     0.000000    99.999999    99.999999    99.999999
atom  -8.32734466E+00  -5.11805489E+00   1.66481017E+01  H      0.000000     0.000000    99.999999    99.999999    99.999999
atom  -6.83550414E+00  -2.44029973E+00   1.70041016E+01  H      0.000000     0.000000    99.999999    99.999999    99.999999
atom   6.92621288E+00  -1.38730786E+01  -1.31138433E+01  O      0.000000     0.000000    99.999999    99.999999    99.999999
atom   8.14368595E+00  -1.52138676E+01  -1.25742963E+01  H      0.000000     0.000000    99.999999    99.999999    99.999999
atom   7.05732586E+00  -1.36179032E+01  -1.49816656E+01  H      0.000000     0.000000    99.999999    99.999999    99.999999
atom   4.48746462E+00  -1.29437906E+01  -5.54675816E+00  O      0.000000     0.000000    99.999999    99.999999    99.999999
atom   6.01020594E+00  -1.40286711E+01  -5.82127490E+00  H      0.000000     0.000000    99.999999    99.999999    99.999999
atom   3.33882860E+00  -1.30807448E+01  -7.04106099E+00  H      0.000000     0.000000    99.999999    99.999999    99.999999
atom  -8.60290074E+00  -1.22110758E+01  -1.15599574E+01  O      0.000000     0.000000    99.999999    99.999999    99.999999
atom  -6.92453481E+00  -1.18753773E+01  -1.23608706E+01  H      0.000000     0.000000    99.999999    99.999999    99.999999
atom  -8.41924960E+00  -1.35681221E+01  -1.02577434E+01  H      0.000000     0.000000    99.999999    99.999999    99.999999
atom  -4.00884612E+00  -3.20082757E+00   4.56321240E+00  O      0.000000     0.000000    99.999999    99.999999    99.999999
atom  -3.85063069E+00  -5.07381451E+00   4.36839297E+00  H      0.000000     0.000000    99.999999    99.999999    99.999999
atom  -2.66861266E+00  -2.34584177E+00   3.54153008E+00  H      0.000000     0.000000    99.999999    99.999999    99.999999
atom   3.75810592E+00  -1.76807445E+01   1.61965063E+01  O      0.000000     0.000000    99.999999    99.999999    99.999999
atom   2.32624153E+00  -1.65593942E+01   1.67097370E+01  H      0.000000     0.000000    99.999999    99.999999    99.999999
atom   3.13477220E+00   1.78303597E+01   1.60160242E+01  H      0.000000     0.000000    99.999999    99.999999    99.999999
atom  -6.44264141E+00   1.21632525E+01  -8.79160501E+00  O      0.000000     0.000000    99.999999    99.999999    99.999999
atom  -5.69199684E+00   1.12613637E+01  -7.31032429E+00  H      0.000000     0.000000    99.999999    99.999999    99.999999
atom  -5.71865521E+00   1.39053400E+01  -8.90135653E+00  H      0.000000     0.000000    99.999999    99.999999    99.999999
atom  -1.20933685E+01   1.06599432E+01  -1.45453468E+01  O      0.000000     0.000000    99.999999    99.999999    99.999999
atom  -1.11567484E+01   9.06899413E+00  -1.49486937E+01  H      0.000000     0.000000    99.999999    99.999999    99.999999
atom  -1.29518919E+01   1.12976634E+01  -1.61033315E+01  H      0.000000     0.000000    99.999999    99.999999    99.999999
atom  -1.37086989E+01  -6.23739259E+00  -6.15108124E+00  O      0.000000     0.000000    99.999999    99.999999    99.999999
atom  -1.47438833E+01  -4.65849050E+00  -6.23188404E+00  H      0.000000     0.000000    99.999999    99.999999    99.999999
atom  -1.22998551E+01  -6.00423062E+00  -4.91339944E+00  H      0.000000     0.000000    99.999999    99.999999    99.999999
atom   1.27432926E+00  -5.64886195E+00   1.12744293E+01  O      0.000000     0.000000    99.999999    99.999999    99.999999
atom   2.38144421E+00  -4.24829899E+00   1.18939306E+01  H      0.000000     0.000000    99.999999    99.999999    99.999999
atom   1.73786774E-01  -5.01068443E+00   9.87707315E+00  H      0.000000     0.000000    99.999999    99.999999    99.999999
atom  -1.81980135E+01   9.20620715E+00   1.32091044E+01  O      0.000000     0.000000    99.999999    99.999999    99.999999
atom  -1.81336306E+01   9.50945906E+00   1.50732266E+01  H      0.000000     0.000000    99.999999    99.999999    99.999999
atom  -1.65877212E+01   8.39227376E+00   1.26473739E+01  H      0.000000     0.000000    99.999999    99.999999    99.999999
atom   1.66580663E+01   9.08928412E+00  -1.32507691E+01  O      0.000000     0.000000    99.999999    99.999999    99.999999
atom   1.79332516E+01   9.49384236E+00  -1.45854222E+01  H      0.000000     0.000000    99.999999    99.999999    99.999999
atom   1.64215160E+01   1.05918885E+01  -1.21294812E+01  H      0.000000     0.000000    99.999999    99.999999    99.999999
atom  -1.55652887E+01   5.41082638E+00   1.76864023E+01  O      0.000000     0.000000    99.999999    99.999999    99.999999
atom  -1.56118817E+01   3.92760679E+00  -1.84294880E+01  H      0.000000     0.000000    99.999999    99.999999    99.999999
atom  -1.47026098E+01   6.85944697E+00   1.85398347E+01  H      0.000000     0.000000    99.999999    99.999999    99.999999
atom  -4.61641953E+00  -1.48919225E+01  -4.84819255E+00  O      0.000000     0.000000    99.999999    99.999999    99.999999
atom  -3.21197129E+00  -1.36696137E+01  -5.17153225E+00  H      0.000000     0.000000    99.999999    99.999999    99.999999
atom  -4.28966509E+00  -1.64924752E+01  -5.79820701E+00  H      0.000000     0.000000    99.999999    99.999999    99.999999
atom   1.48212354E+00   3.56579605E+00  -2.91930751E+00  O      0.000000     0.000000    99.999999    99.999999    99.999999
atom   7.00358961E-01   2.20521024E+00  -1.86635211E+00  H      0.000000     0.000000    99.999999    99.999999    99.999999
atom   2.88016183E+00   2.83315868E+00  -3.95844146E+00  H      0.000000     0.000000    99.999999    99.999999    99.999999
atom  -9.68051518E+00  -1.81348457E+01   1.85289896E+01  O      0.000000     0.000000    99.999999    99.999999    99.999999
atom  -8.79617248E+00   1.77643611E+01   1.75983751E+01  H      0.000000     0.000000    99.999999    99.999999    99.999999
atom  -8.44105515E+00  -1.72212443E+01  -1.76614182E+01  H      0.000000     0.000000    99.999999    99.999999    99.999999
atom   6.89182365E+00   1.01588086E+01  -1.57707756E+01  O      0.000000     0.000000    99.999999    99.999999    99.999999
atom   7.06834486E+00   1.15561043E+01  -1.45108271E+01  H      0.000000     0.000000    99.999999    99.999999    99.999999
atom   5.17100502E+00   9.39183495E+00  -1.56238116E+01  H      0.000000     0.000000    99.999999    99.999999    99.999999
atom  -8.55283623E+00  -9.07750357E+00  -2.88572897E+00  O      0.000000     0.000000    99.999999    99.999999    99.999999
atom  -6.73579463E+00  -8.98730316E+00  -2.37456372E+00  H      0.000000     0.000000    99.999999    99.999999    99.999999
atom  -9.44063712E+00  -1.03694942E+01  -1.83043975E+00  H      0.000000     0.000000    99.999999    99.999999    99.999999
atom  -1.49070611E+01   1.81972123E+00  -1.30513236E+01  O      0.000000     0.000000    99.999999    99.999999    99.999999
atom  -1.44941824E+01   1.99922442E+00  -1.48866370E+01  H      0.000000     0.000000    99.999999    99.999999    99.999999
atom  -1.63480397E+01   6.14737360E-01  -1.28447992E+01  H      0.000000     0.000000    99.999999    99.999999    99.999999
atom  -5.27561459E+00   7.97797209E+00   1.10574471E+01  O      0.000000     0.000000    99.999999    99.999999    99.999999
atom  -4.52664998E+00   6.99318478E+00   1.24858420E+01  H      0.000000     0.000000    99.999999    99.999999    99.999999
atom  -3.90133204E+00   8.88025018E+00   1.01256175E+01  H      0.000000     0.000000    99.999999    99.999999    99.999999
atom   1.20568741E+01   1.35039603E+01  -3.86166858E+00  O      0.000000     0.000000    99.999999    99.999999    99.999999
atom   1.24812934E+01   1.48855844E+01  -5.07906228E+00  H      0.000000     0.000000    99.999999    99.999999    99.999999
atom   1.20882795E+01   1.41855694E+01  -2.09942904E+00  H      0.000000     0.000000    99.999999    99.999999    99.999999
atom   1.19511251E+01   1.03381852E+01   1.19068866E+01  O      0.000000     0.000000    99.999999    99.999999    99.999999
atom   1.16495248E+01   1.15598119E+01   1.33167564E+01  H      0.000000     0.000000    99.999999    99.999999    99.999999
atom   1.10283283E+01   1.09177964E+01   1.03630087E+01  H      0.000000     0.000000    99.999999    99.999999    99.999999
atom  -1.38018302E+01   2.27077429E+00  -4.56877197E+00  O      0.000000     0.000000    99.999999    99.999999    99.999999
atom  -1.23023515E+01   1.17768866E+00  -4.92625714E+00  H      0.000000     0.000000    99.999999    99.999999    99.999999
atom  -1.32979726E+01   4.08846217E+00  -4.68369000E+00  H      0.000000     0.000000    99.999999    99.999999    99.999999
atom  -1.40194454E+01   1.70492396E+01   1.02046836E+01  O      0.000000     0.000000    99.999999    99.999999    99.999999
atom  -1.39914680E+01   1.65495676E+01   1.20269371E+01  H      0.000000     0.000000    99.999999    99.999999    99.999999
atom  -1.28170203E+01   1.59610143E+01   9.23463052E+00  H      0.000000     0.000000    99.999999    99.999999    99.999999
atom  -2.12504806E+00   1.11355079E+01   7.00860683E+00  O      0.000000     0.000000    99.999999    99.999999    99.999999
atom  -1.43506936E+00   9.51372795E+00   7.69038790E+00  H      0.000000     0.000000    99.999999    99.999999    99.999999
atom  -2.05603715E+00   1.24633202E+01   8.35144622E+00  H      0.000000     0.000000    99.999999    99.999999    99.999999
atom   1.48583043E+01   5.04075753E+00   1.53855077E+01  O      0.000000     0.000000    99.999999    99.999999    99.999999
atom   1.48734731E+01   6.58635131E+00   1.64726955E+01  H      0.000000     0.000000    99.999999    99.999999    99.999999
atom   1.42909235E+01   5.50193764E+00   1.36429647E+01  H      0.000000     0.000000    99.999999    99.999999    99.999999
atom  -6.48598417E+00   8.59653236E+00  -1.85854868E+01  O      0.000000     0.000000    99.999999    99.999999    99.999999
atom  -7.85298938E+00   9.49573776E+00   1.77550183E+01  H      0.000000     0.000000    99.999999    99.999999    99.999999
atom  -5.29876184E+00   7.78720235E+00   1.74730088E+01  H      0.000000     0.000000    99.999999    99.999999    99.999999
atom   1.75898808E+01  -2.76788754E+00  -1.35397536E+01  O      0.000000     0.000000    99.999999    99.999999    99.999999
atom   1.79046449E+01  -3.76082901E+00  -1.19630322E+01  H      0.000000     0.000000    99.999999    99.999999    99.999999
atom   1.63821190E+01  -3.70973649E+00  -1.46466852E+01  H      0.000000     0.000000    99.999999    99.999999    99.999999
atom  -1.09090620E+01  -5.60133723E-02   2.98558399E+00  O      0.000000     0.000000    99.999999    99.999999    99.999999
atom  -9.16158504E+00   3.62430575E-02   2.27222560E+00  H      0.000000     0.000000    99.999999    99.999999    99.999999
atom  -1.21490739E+01  -3.14191536E-01   1.58316531E+00  H      0.000000     0.000000    99.999999    99.999999    99.999999
atom   5.26628123E+00  -6.07286547E+00   4.18031420E+00  O      0.000000     0.000000    99.999999    99.999999    99.999999
atom   4.35429940E+00  -7.54451616E+00   4.93767864E+00  H      0.000000     0.000000    99.999999    99.999999    99.999999
atom   4.41366325E+00  -4.46839161E+00   4.69970732E+00  H      0.000000     0.000000    99.999999    99.999999    99.999999
atom   9.71991597E+00   1.85320850E+01  -6.09010923E+00  O      0.000000     0.000000    99.999999    99.999999    99.999999
atom   1.11152708E+01  -1.77721940E+01  -5.27743061E+00  H      0.000000     0.000000    99.999999    99.999999    99.999999
atom   9.05333208E+00   1.72547511E+01  -4.86734492E+00  H      0.000000     0.000000    99.999999    99.999999    99.999999
atom  -1.48744029E+01   6.46655968E+00   1.37224164E+00  O      0.000000     0.000000    99.999999    99.999999    99.999999
atom  -1.58120056E+01   8.08419170E+00   1.64653539E+00  H      0.000000     0.000000    99.999999    99.999999    99.999999
atom  -1.41203908E+01   6.46159537E+00  -3.60531400E-01  H      0.000000     0.000000    99.999999    99.999999    99.999999
atom  -1.52759659E+01  -6.94956234E+00   8.17843046E+00  O      0.000000     0.000000    99.999999    99.999999    99.999999
atom  -1.44150086E+01  -6.26491267E+00   6.64185067E+00  H      0.000000     0.000000    99.999999    99.999999    99.999999
atom  -1.71181711E+01  -7.17283915E+00   7.82137426E+00  H      0.000000     0.000000    99.999999    99.999999    99.999999
atom   1.64563455E+01   1.41214264E+01   5.22805396E+00  O      0.000000     0.000000    99.999999    99.999999    99.999999
atom   1.54777471E+01   1.53503777E+01   6.27833351E+00  H      0.000000     0.000000    99.999999    99.999999    99.999999
atom   1.81364538E+01   1.38032778E+01   6.03246691E+00  H      0.000000     0.000000    99.999999    99.999999    99.999999
atom   4.05237596E+00  -1.66859586E+01  -2.04425471E+00  O      0.000000     0.000000    99.999999    99.999999    99.999999
atom   3.59343329E+00  -1.67889449E+01  -3.87450927E+00  H      0.000000     0.000000    99.999999    99.999999    99.999999
atom   2.90779719E+00  -1.78084522E+01  -1.04374866E+00  H      0.000000     0.000000    99.999999    99.999999    99.999999
atom   1.18732816E+00  -1.02604551E+01   1.83077329E+01  O      0.000000     0.000000    99.999999    99.999999    99.999999
atom   2.68855116E+00  -1.14072033E+01   1.83563121E+01  H      0.000000     0.000000    99.999999    99.999999    99.999999
atom   1.46767470E+00  -8.91022123E+00   1.70157026E+01  H      0.000000     0.000000    99.999999    99.999999    99.999999
atom  -1.12067752E+01   1.62750547E+01  -4.77130526E+00  O      0.000000     0.000000    99.999999    99.999999    99.999999
atom  -1.23724867E+01   1.67311722E+01  -6.18698037E+00  H      0.000000     0.000000    99.999999    99.999999    99.999999
atom  -1.07863432E+01   1.78260682E+01  -3.77698995E+00  H      0.000000     0.000000    99.999999    99.999999    99.999999
atom  -1.75178973E+01   3.62134455E+00   5.63442633E+00  O      0.000000     0.000000    99.999999    99.999999    99.999999
atom  -1.80241134E+01   2.54886072E+00   4.16317250E+00  H      0.000000     0.000000    99.999999    99.999999    99.999999
atom   1.83826152E+01   4.84467577E+00   6.02836998E+00  H      0.000000     0.000000    99.999999    99.999999    99.999999
atom   3.22587211E+00   2.44145057E-01   1.41532947E+01  O      0.000000     0.000000    99.999999    99.999999    99.999999
atom   4.56505488E+00   1.46548829E+00   1.46880608E+01  H      0.000000     0.000000    99.999999    99.999999    99.999999
atom   3.97690786E+00  -1.04715583E+00   1.29959036E+01  H      0.000000     0.000000    99.999999    99.999999    99.999999
atom   1.74743486E+01  -5.77194171E-01  -7.84892458E+00  O      0.000000     0.000000    99.999999    99.999999    99.999999
atom   1.74896667E+01  -2.46202024E+00  -7.98404189E+00  H      0.000000     0.000000    99.999999    99.999999    99.999999
atom   1.76949835E+01  -7.34971185E-02  -6.04097635E+00  H      0.000000     0.000000    99.999999    99.999999    99.999999
atom  -1.62925214E+01  -1.75728392E+01   4.71456435E+00  O      0.000000     0.000000    99.999999    99.999999    99.999999
atom  -1.60387690E+01  -1.75607639E+01   6.58713743E+00  H      0.000000     0.000000    99.999999    99.999999    99.999999
atom  -1.80890368E+01  -1.71397329E+01   4.31957568E+00  H      0.000000     0.000000    99.999999    99.999999    99.999999
atom   9.64159627E+00  -1.34663963E+01  -4.36251026E+00  O      0.000000     0.000000    99.999999    99.999999    99.999999
atom   9.23346267E+00  -1.52280273E+01  -4.91127917E+00  H      0.000000     0.000000    99.999999    99.999999    99.999999
atom   1.14266070E+01  -1.33962742E+01  -3.74616285E+00  H      0.000000     0.000000    99.999999    99.999999    99.999999
atom   9.70016077E+00  -1.40879310E+01   1.81674491E+01  O      0.000000     0.000000    99.999999    99.999999    99.999999
atom   9.37915110E+00  -1.44841159E+01   1.63478205E+01  H      0.000000     0.000000    99.999999    99.999999    99.999999
atom   1.10511014E+01  -1.27729197E+01   1.82969407E+01  H      0.000000     0.000000    99.999999    99.999999    99.999999
atom  -1.39041854E+01  -9.61063122E+00   1.23525161E+00  O      0.000000     0.000000    99.999999    99.999999    99.999999
atom  -1.49158880E+01  -1.05940523E+01   2.49239570E+00  H      0.000000     0.000000    99.999999    99.999999    99.999999
atom  -1.20968475E+01  -1.01566222E+01   1.31580497E+00  H      0.000000     0.000000    99.999999    99.999999    99.999999
atom  -3.20986613E+00   1.49277064E+01   1.62826646E+01  O      0.000000     0.000000    99.999999    99.999999    99.999999
atom  -5.09438796E+00   1.49875313E+01   1.61559112E+01  H      0.000000     0.000000    99.999999    99.999999    99.999999
atom  -2.71387349E+00   1.41354255E+01   1.79250256E+01  H      0.000000     0.000000    99.999999    99.999999    99.999999
atom   7.77827528E+00  -9.29887554E+00   1.59862648E+01  O      0.000000     0.000000    99.999999    99.999999    99.999999
atom   9.09195808E+00  -9.76430375E+00   1.47100666E+01  H      0.000000     0.000000    99.999999    99.999999    99.999999
atom   7.54354484E+00  -7.42379856E+00   1.59934817E+01  H      0.000000     0.000000    99.999999    99.999999    99.999999
atom  -8.37427789E+00   1.51684027E+01   3.82551245E+00  O      0.000000     0.000000    99.999999    99.999999    99.999999
atom  -6.78338549E+00   1.43327942E+01   4.41022395E+00  H      0.000000     0.000000    99.999999    99.999999    99.999999
atom  -9.45607052E+00   1.55787567E+01   5.31963387E+00  H      0.000000     0.000000    99.999999    99.999999    99.999999
atom  -8.33974693E+00   1.00717754E+01   4.50006153E-01  O      0.000000     0.000000    99.999999    99.999999    99.999999
atom  -9.08874933E+00   1.03920462E+01   2.15514006E+00  H      0.000000     0.000000    99.999999    99.999999    99.999999
atom  -9.68238223E+00   9.43721294E+00  -7.18634502E-01  H      0.000000     0.000000    99.999999    99.999999    99.999999
atom  -1.01268798E+01   4.66778040E+00  -1.58811961E+01  O      0.000000     0.000000    99.999999    99.999999    99.999999
atom  -8.70277277E+00   4.15662648E+00  -1.47490744E+01  H      0.000000     0.000000    99.999999    99.999999    99.999999
atom  -9.48916907E+00   4.85509950E+00  -1.76501800E+01  H      0.000000     0.000000    99.999999    99.999999    99.999999
atom   1.25070201E+01   1.42454019E+01  -1.45792806E+01  O      0.000000     0.000000    99.999999    99.999999    99.999999
atom   1.26631644E+01   1.31615381E+01  -1.61193866E+01  H      0.000000     0.000000    99.999999    99.999999    99.999999
atom   1.11641203E+01   1.55455032E+01  -1.48575314E+01  H      0.000000     0.000000    99.999999    99.999999    99.999999
atom   7.43965525E+00   7.83422440E+00   5.01124001E+00  O      0.000000     0.000000    99.999999    99.999999    99.999999
atom   8.07772506E+00   6.57451406E+00   6.26704995E+00  H      0.000000     0.000000    99.999999    99.999999    99.999999
atom   6.21891107E+00   9.00326379E+00   5.85634254E+00  H      0.000000     0.000000    99.999999    99.999999    99.999999
atom   1.77539241E+01  -1.21351598E+00   1.37825248E+01  O      0.000000     0.000000    99.999999    99.999999    99.999999
atom  -1.81076619E+01  -4.32622562E-01   1.47482164E+01  H      0.000000     0.000000    99.999999    99.999999    99.999999
atom   1.70460006E+01  -2.66328741E+00   1.47664315E+01  H      0.000000     0.000000    99.999999    99.999999    99.999999
atom  -1.62437646E+01  -1.27946553E+01  -1.76731667E+01  O      0.000000     0.000000    99.999999    99.999999    99.999999
atom  -1.64134507E+01  -1.11038437E+01  -1.68464701E+01  H      0.000000     0.000000    99.999999    99.999999    99.999999
atom  -1.73407865E+01  -1.40463041E+01  -1.67781924E+01  H      0.000000     0.000000    99.999999    99.999999    99.999999
atom   1.65540387E+00   2.35039034E+00  -8.35633683E+00  O      0.000000     0.000000    99.999999    99.999999    99.999999
atom   9.50430200E-01   1.84305935E+00  -1.00346385E+01  H      0.000000     0.000000    99.999999    99.999999    99.999999
atom   3.15826338E+00   3.46627551E+00  -8.61571686E+00  H      0.000000     0.000000    99.999999    99.999999    99.999999
atom  -1.40757385E+01  -8.56738145E+00   1.67921518E+01  O      0.000000     0.000000    99.999999    99.999999    99.999999
atom  -1.55131228E+01  -8.86445207E+00   1.79824222E+01  H      0.000000     0.000000    99.999999    99.999999    99.999999
atom  -1.27118929E+01  -7.60595871E+00   1.76790891E+01  H      0.000000     0.000000    99.999999    99.999999    99.999999
atom  -1.53379092E+01   7.75081945E+00   8.47132856E+00  O      0.000000     0.000000    99.999999    99.999999    99.999999
atom  -1.57346705E+01   7.34605334E+00   6.66860731E+00  H      0.000000     0.000000    99.999999    99.999999    99.999999
atom  -1.44033679E+01   9.39101858E+00   8.55764180E+00  H      0.000000     0.000000    99.999999    99.999999    99.999999
atom   1.71724913E+01  -1.41770335E+01   1.00658303E+01  O      0.000000     0.000000    99.999999    99.999999    99.999999
atom   1.82580539E+01  -1.41284467E+01   1.16118776E+01  H      0.000000     0.000000    99.999999    99.999999    99.999999
atom   1.66662280E+01  -1.24180121E+01   9.59613891E+00  H      0.000000     0.000000    99.999999    99.999999    99.999999
atom   1.10890811E+01  -8.02482596E+00  -1.33992864E+01  O      0.000000     0.000000    99.999999    99.999999    99.999999
atom   1.00107883E+01  -8.18134630E+00  -1.18553159E+01  H      0.000000     0.000000    99.999999    99.999999    99.999999
atom   1.02523066E+01  -6.86806034E+00  -1.46373367E+01  H      0.000000     0.000000    99.999999    99.999999    99.999999
atom   1.78049032E+01  -8.50102372E+00   1.37894299E+01  O      0.000000     0.000000    99.999999    99.999999    99.999999
atom   1.67022310E+01  -9.78635118E+00   1.46279467E+01  H      0.000000     0.000000    99.999999    99.999999    99.999999
atom   1.67506231E+01  -7.39747090E+00   1.26751018E+01  H      0.000000     0.000000    99.999999    99.999999    99.999999
atom   1.26588294E+01   1.71339465E+01   1.35719904E+01  O      0.000000     0.000000    99.999999    99.999999    99.999999
atom   1.09986048E+01   1.67647394E+01   1.27483363E+01  H      0.000000     0.000000    99.999999    99.999999    99.999999
atom   1.35688251E+01   1.84648561E+01   1.25862658E+01  H      0.000000     0.000000    99.999999    99.999999    99.999999
atom  -7.01575378E+00  -1.12055431E+01   7.33462994E+00  O      0.000000     0.000000    99.999999    99.999999    99.999999
atom  -6.99315265E+00  -1.00485771E+01   5.84064648E+00  H      0.000000     0.000000    99.999999    99.999999    99.999999
atom  -8.19578948E+00  -1.26431541E+01   7.00018621E+00  H      0.000000     0.000000    99.999999    99.999999    99.999999
atom   1.37444997E+01   1.83207210E+01   6.79230122E+00  O      0.000000     0.000000    99.999999    99.999999    99.999999
atom   1.26177619E+01  -1.74597750E+01   6.98004173E+00  H      0.000000     0.000000    99.999999    99.999999    99.999999
atom   1.31484196E+01   1.72646551E+01   5.34300033E+00  H      0.000000     0.000000    99.999999    99.999999    99.999999
atom  -1.46636228E+01  -1.40592620E+01   1.06514810E+01  O      0.000000     0.000000    99.999999    99.999999    99.999999
atom  -1.56463919E+01  -1.54836222E+01   9.89225332E+00  H      0.000000     0.000000    99.999999    99.999999    99.999999
atom  -1.37286015E+01  -1.31424991E+01   9.28900550E+00  H      0.000000     0.000000    99.999999    99.999999    99.999999
atom  -7.58732601E+00   1.23347451E+01   9.16304202E+00  O      0.000000     0.000000    99.999999    99.999999    99.999999
atom  -5.82550599E+00   1.16639906E+01   9.03211613E+00  H      0.000000     0.000000    99.999999    99.999999    99.999999
atom  -8.59770021E+00   1.12302758E+01   1.03164534E+01  H      0.000000     0.000000    99.999999    99.999999    99.999999