begin
comment 7.1142
comment Values for ['energy', 'charge', 'force of atom'] were set to default values
comment lattice 13.443888628	0.0000000000	0.0000000000
comment lattice 0.0000000000    13.443888628    0.0000000000
comment lattice 0.0000000000    0.0000000000	13.443888628
atom     1.028157    -6.568274    -4.947316  O      0.000000     0.000000    99.999999    99.999999    99.999999
atom     2.044122    -6.720650    -3.361233  H      0.000000     0.000000    99.999999    99.999999    99.999999
atom     2.047996    -5.677478    -6.265449  H      0.000000     0.000000    99.999999    99.999999    99.999999
energy  99.999999
charge  0.0
end
