begin
comment uuid: 5fc9fca1-96ee-49aa-b8e1-e1c6ac877be0 
lattice 6.9553390259 0.0000000000 0.0000000000
lattice 0.0000000000 6.9553390259 0.0000000000
lattice 0.0000000000 0.0000000000 6.9553390259
stress 0.00078027494659142175 0.00004084499720422495 -0.00001816999875629251
stress 0.00004084499720422495 0.00080676994477788151 0.00002134499853896882
stress -0.00001816999875629251 0.00002134499853896882 0.00074339994911545675
atom   0.000000    0.000000   0.000000 Al  0.0   0.0  0.0213894850  0.0124266900  0.0117485500
atom   0.314588    3.565439   3.703906 Si  0.0   0.0  0.0037157450  -0.0056340750  -0.0147087650
atom   3.658931    0.112005   3.477420 Si  0.0   0.0  -0.0084941000  0.0033064300  -0.0038963800
atom   3.807265    3.632455   0.020122 Si  0.0   0.0  -0.0166111350  -0.0100990450  0.0068565900
energy -36.802875069999999
charge 0.000000000000000
end
begin
comment uuid: 1a00c004-9e93-49af-9997-117739314ccc 
lattice 5.4211200202 0.0000000000 0.0000000000
lattice 0.0000000000 9.3896560350 0.0000000000
lattice 0.0000000000 0.0000000000 62.6090812335
stress -0.00005192499644581665 0.00000150499989698515 -0.00000025999998220342
stress 0.00000150499989698515 -0.00004527499690099854 -0.00000218499985044024
stress -0.00000025999998220342 -0.00000218499985044024 -0.00002316499841439273
atom   0.000000    0.000000   11.290734 Al  0.0   0.0  0.0002672200  -0.0020916950  0.0005562550
atom   2.824754    6.015301   46.893913 Al  0.0   0.0  -0.0012435750  -0.0021036850  -0.0002596000
atom   0.089307    1.298384   46.929175 Al  0.0   0.0  -0.0003380500  -0.0004384150  -0.0002041750
atom   5.396810    4.268652   42.472091 Al  0.0   0.0  0.0017955150  0.0019098350  -0.0002373500
atom   2.712451    9.001381   42.488582 Al  0.0   0.0  0.0002937200  -0.0006039300  -0.0003068650
atom   2.911828    2.670164   38.003173 Al  0.0   0.0  -0.0033972700  0.0041071950  0.0001120750
atom   0.020280    7.448216   38.027528 Al  0.0   0.0  0.0022253900  -0.0024906250  0.0002714450
atom   2.865262    5.880503   33.562944 Al  0.0   0.0  -0.0023876400  -0.0013966300  0.0004088400
atom   0.011358    1.173622   33.525247 Al  0.0   0.0  0.0016166000  -0.0003010500  0.0004420950
atom   0.126123    6.407889   28.984091 Al  0.0   0.0  -0.0019863200  -0.0006948300  0.0002726800
atom   2.630683    1.663968   28.971213 Al  0.0   0.0  0.0033291250  0.0012234250  -0.0000343800
atom   2.805642    4.713126   24.600905 Al  0.0   0.0  0.0006173200  0.0020873300  -0.0001192450
atom   0.072597    0.068067   24.462814 Al  0.0   0.0  -0.0004009800  -0.0014016800  0.0003220250
atom   2.780934    7.840209   20.085037 Al  0.0   0.0  0.0015711950  0.0092538600  0.0001399950
atom   0.229165    3.416653   20.130441 Al  0.0   0.0  -0.0037649200  -0.0110577850  0.0003812350
atom   0.059576    6.265477   15.659213 Al  0.0   0.0  -0.0007460350  0.0033319300  -0.0002761000
atom   2.676924    1.651704   15.761786 Al  0.0   0.0  0.0020790400  -0.0032740700  0.0002233250
atom   2.750053    4.614708   11.234304 Al  0.0   0.0  -0.0001687500  0.0030559200  0.0003034550
atom   0.000353    7.402983   51.386534 Al  0.0   0.0  0.0009949300  0.0043517600  -0.0009589950
atom   2.760794    2.818248   51.385044 Al  0.0   0.0  -0.0003565200  -0.0034668550  -0.0010367100
energy -394.963858490000007
charge 0.000000000000000
end
begin
comment uuid: 47730c4f-900c-4161-80fb-bc4e49279671 
lattice 7.0114340262 0.0000000000 0.0000000000
lattice 0.0000000000 7.0584900263 0.0000000000
lattice 0.0000000000 0.0000000000 7.0584900263
stress 0.00052180496428328078 0.00000000000000000000 0.00000000000000000000
stress 0.00000000000000000000 0.00051303996488323100 0.00000000000000000000
stress 0.00000000000000000000 0.00000000000000000000 0.00051303996488323100
atom   0.000000    0.000000   0.000000 Al  0.0   0.0  -0.0000000000  0.0000000000  0.0000000000
atom   0.000000    3.529245   3.529245 Si  0.0   0.0  0.0000000050  0.0000000000  0.0000000000
atom   3.505717    0.000000   3.529245 Si  0.0   0.0  -0.0000000000  -0.0000000050  0.0000000000
atom   3.505717    3.529245   0.000000 Si  0.0   0.0  -0.0000000000  0.0000000000  -0.0000000050
energy -36.815973524999997
charge 0.000000000000000
end
begin
comment uuid: d92e9ac0-3024-4407-a95b-9376d7b171b8 
lattice 15.3332370572 0.0000000000 0.0000000000
lattice 0.0000000000 15.3332370572 0.0000000000
lattice 0.0000000000 0.0000000000 15.3332370572
stress 0.00005795499603307277 -0.00001179999919230884 0.00002470999830863994
stress -0.00001179999919230884 0.00007489499487355679 0.00000552999962148033
stress 0.00002470999830863994 0.00000552999962148033 0.00006322499567234968
atom   7.963671    11.709798   11.635450 Al  0.0   0.0  -0.0002969800  -0.0069807400  -0.0004332800
atom   4.067247    4.770585   14.351880 Al  0.0   0.0  0.0005274550  -0.0019351000  0.0034726450
atom   3.617247    14.244615   3.619506 Al  0.0   0.0  -0.0010022250  0.0028262200  0.0009741600
atom   11.410849    11.793062   7.490067 Al  0.0   0.0  0.0023025250  0.0021069300  -0.0006062200
atom   6.865992    0.400360   14.475617 Al  0.0   0.0  0.0003571100  0.0029137500  -0.0029336300
atom   15.198025    7.227531   7.033396 Al  0.0   0.0  -0.0022922900  -0.0020625450  0.0037663250
atom   12.306569    14.459837   11.700393 Al  0.0   0.0  0.0000228700  0.0021266300  -0.0021832650
atom   0.016198    7.510270   0.334422 Al  0.0   0.0  -0.0045411550  0.0030326400  -0.0037998200
atom   3.671435    11.052942   14.551456 Al  0.0   0.0  0.0022741900  0.0035452550  0.0056286450
atom   11.760442    3.450267   8.508924 Al  0.0   0.0  0.0023869350  -0.0009526600  -0.0010950750
atom   14.926144    11.222324   3.962650 Al  0.0   0.0  -0.0005319500  0.0018630900  -0.0006076850
atom   8.036019    7.844013   15.008594 Al  0.0   0.0  -0.0013632800  0.0011437400  -0.0008403050
atom   4.165041    4.790787   8.181288 Al  0.0   0.0  -0.0017832600  -0.0024371600  -0.0019413750
atom   0.295729    15.214836   7.563186 Al  0.0   0.0  -0.0008985100  0.0018648600  0.0007018850
atom   3.043054    10.745293   9.199474 Mg  0.0   0.0  0.0021331300  0.0001590150  -0.0029362350
atom   7.011960    0.212631   8.058606 Mg  0.0   0.0  0.0008625050  0.0016553450  -0.0027152000
atom   10.771936    6.845315   4.136102 Mg  0.0   0.0  0.0004447450  -0.0013674300  0.0010868450
atom   12.322467    8.290479   11.284893 Mg  0.0   0.0  -0.0035308450  -0.0019032300  0.0015542200
atom   4.412542    8.170850   3.799185 Mg  0.0   0.0  -0.0020052450  -0.0025924900  0.0045426350
atom   11.561581    3.439503   15.022010 Mg  0.0   0.0  0.0024185600  -0.0034359400  0.0009304000
atom   0.799308    3.430160   3.567810 Mg  0.0   0.0  0.0000282550  -0.0009816000  -0.0023530200
atom   8.251403    12.229819   3.275989 Mg  0.0   0.0  0.0023105650  0.0009656200  -0.0001189900
atom   2.664828    0.141547   11.843778 Si  0.0   0.0  -0.0038228750  -0.0028221000  0.0064419850
atom   0.340202    4.346580   11.349015 Si  0.0   0.0  0.0007530350  0.0015223550  -0.0016574750
atom   11.857956    11.085663   0.085369 Si  0.0   0.0  0.0071095550  -0.0024470200  -0.0036690350
atom   6.507811    3.200726   3.335005 Si  0.0   0.0  0.0019014650  -0.0050912450  -0.0012580200
atom   8.011311    4.528514   11.367701 Si  0.0   0.0  -0.0011281750  0.0002720700  -0.0033865900
atom   11.501234    0.897664   4.456147 Si  0.0   0.0  -0.0071497550  -0.0020835000  0.0024322600
atom   7.767621    8.197559   8.116423 Si  0.0   0.0  -0.0013638750  0.0080051350  0.0020177450
atom   15.039414    14.711710   0.350834 Si  0.0   0.0  0.0058775150  0.0030901050  -0.0010145250
energy -456.508440065000002
charge 0.000000000000000
end
begin
comment uuid: 78c405a7-37b9-4a3c-9220-2038415747dc 
lattice 7.7680950290 0.0000000000 0.0000000000
lattice 0.0000000000 7.8202300292 0.0000000000
lattice 0.0000000000 0.0000000000 7.8202300292
stress 0.00002630499819946474 0.00000000000000000000 0.00000000000000000000
stress 0.00000000000000000000 0.00001181999919093987 0.00000000000000000000
stress 0.00000000000000000000 0.00000000000000000000 0.00001181999919093987
atom   0.000000    3.910115   3.910115 Al  0.0   0.0  -0.0000000200  0.0000000050  0.0000000050
atom   3.884047    0.000000   3.910115 Al  0.0   0.0  0.0000000300  -0.0000000100  0.0000000000
atom   3.884047    3.910115   0.000000 Al  0.0   0.0  0.0000000200  0.0000000050  -0.0000000050
atom   0.000000    0.000000   0.000000 Mg  0.0   0.0  -0.0000000300  -0.0000000050  -0.0000000000
energy -76.062597429999997
charge 0.000000000000000
end
begin
comment uuid: 26c4b15b-a19d-47b2-b397-bc051c36af04 
lattice 26.8216901000 0.0000000000 -7.3373620274
lattice 0.0000000000 7.6347420285 0.0000000000
lattice 0.0000000000 0.0000000000 13.1940060492
stress 0.00003821999738390202 -0.00001774999878504084 -0.00006945999524557387
stress -0.00001774999878504084 0.00003989999726890870 -0.00000263999981929621
stress -0.00006945999524557387 -0.00000263999981929621 -0.00000188499987097476
atom   22.713800    3.604791   -5.331986 Mg  0.0   0.0  -0.0015577150  0.0030244600  0.0042969700
atom   11.285698    0.121992   5.035171 Mg  0.0   0.0  0.0030488050  0.0004849700  0.0049949600
atom   4.271161    3.803764   11.062975 Mg  0.0   0.0  -0.0048831300  -0.0033256150  0.0007744300
atom   15.559560    0.069368   0.616845 Mg  0.0   0.0  -0.0071949900  0.0008227850  0.0004705250
atom   2.146795    3.601928   4.488672 Mg  0.0   0.0  -0.0045968300  0.0011361000  -0.0032643700
atom   26.759917    7.458681   -7.238811 Mg  0.0   0.0  0.0037398600  0.0004394100  -0.0057036100
atom   17.583474    0.267828   7.446608 Mg  0.0   0.0  -0.0009103450  -0.0040880200  -0.0027960200
atom   9.171323    0.183403   -1.352065 Mg  0.0   0.0  0.0034102100  -0.0031727100  -0.0027090400
atom   24.711335    3.713335   1.512602 Mg  0.0   0.0  0.0050167650  -0.0015077850  0.0023664350
atom   13.489164    3.930639   -3.678472 Mg  0.0   0.0  -0.0033262200  0.0012447650  -0.0011875500
atom   19.365901    3.335102   2.688526 Si  0.0   0.0  -0.0136118900  0.0143066050  0.0109081750
atom   25.183448    7.516050   -2.392407 Si  0.0   0.0  0.0025629300  -0.0029538300  0.0009715400
atom   21.661087    7.258312   3.999379 Si  0.0   0.0  0.0040222450  -0.0009538850  0.0070966700
atom   1.623251    7.338453   8.241865 Si  0.0   0.0  -0.0039140750  0.0076233700  0.0038709850
atom   8.329615    3.690544   7.870781 Si  0.0   0.0  0.0015275350  -0.0024212150  -0.0047054750
atom   7.451454    4.227962   3.077178 Si  0.0   0.0  0.0100114700  -0.0154052550  -0.0022953550
atom   11.652549    3.925395   1.256493 Si  0.0   0.0  0.0122334850  0.0001032400  0.0001601600
atom   15.095081    3.904432   4.474684 Si  0.0   0.0  -0.0058827150  0.0029611050  0.0024055600
atom   20.965863    0.488784   -0.611516 Si  0.0   0.0  0.0084526150  -0.0121374750  -0.0113631350
atom   5.864536    7.314428   6.402878 Si  0.0   0.0  -0.0041493050  0.0104561500  0.0115394900
atom   5.075613    0.167072   1.840300 Si  0.0   0.0  -0.0066073450  0.0064494300  -0.0063640150
atom   18.512089    4.247129   -1.830325 Si  0.0   0.0  0.0026086350  -0.0030865900  -0.0094673400
energy -236.538331494999994
charge 0.000000000000000
end
begin
comment uuid: be3dae4d-3b5d-4098-b436-3772e9bb9192 
lattice 13.7944840515 0.0000000000 0.0000000000
lattice 0.0000000000 15.3272040572 0.0000000000
lattice 0.0000000000 0.0000000000 15.3272040572
stress 0.00041146497183587767 0.00000000000000000000 0.00000000000000000000
stress 0.00000000000000000000 0.00020194498617718716 0.00000000000000000000
stress 0.00000000000000000000 0.00000000000000000000 0.00019416998670937345
atom   0.000012    15.327197   7.663612 Al  0.0   0.0  -0.0000023850  0.0000012900  -0.0000015150
atom   10.347775    11.497509   7.663618 Al  0.0   0.0  -0.0009353800  -0.0005019600  -0.0000017200
atom   6.897260    7.663590   7.663619 Al  0.0   0.0  -0.0000024550  0.0000019400  -0.0000018300
atom   13.794478    11.515942   11.511719 Al  0.0   0.0  0.0000011500  -0.0021954000  -0.0008164750
atom   3.502836    7.663592   11.557799 Al  0.0   0.0  0.0012516300  0.0000015750  0.0026306150
atom   3.446710    11.497540   7.663593 Al  0.0   0.0  0.0009354050  -0.0005059850  0.0000009800
atom   13.794473    7.663605   7.663581 Al  0.0   0.0  0.0000018900  -0.0000008400  0.0000019050
atom   6.897241    3.892042   11.557774 Al  0.0   0.0  0.0000008700  -0.0027287700  -0.0026240550
atom   10.364347    15.327192   11.511748 Al  0.0   0.0  -0.0005736750  0.0000016500  0.0013195250
atom   10.347751    3.829701   7.663595 Al  0.0   0.0  -0.0009314700  0.0005016150  0.0000010450
atom   6.897220    0.000015   7.663589 Al  0.0   0.0  0.0000026650  -0.0000013450  0.0000013900
atom   0.000011    3.811254   11.511742 Al  0.0   0.0  -0.0000018300  0.0021952350  -0.0008187300
atom   3.430131    0.000008   11.511724 Al  0.0   0.0  0.0005743900  -0.0000007950  0.0013227500
atom   3.446728    3.829677   7.663610 Al  0.0   0.0  0.0009322200  0.0005051700  -0.0000009800
atom   10.291651    7.663615   11.557782 Al  0.0   0.0  -0.0012507100  -0.0000012000  0.0026332150
atom   6.897256    11.435175   11.557794 Al  0.0   0.0  -0.0000023450  0.0027275500  -0.0026267550
atom   10.291674    7.663595   3.769429 Al  0.0   0.0  -0.0012549500  0.0000014700  -0.0026325300
atom   10.304947    11.449977   15.327199 Al  0.0   0.0  -0.0006026800  -0.0019297450  0.0000009650
atom   0.000008    11.515910   3.815479 Al  0.0   0.0  -0.0000017000  -0.0021916200  0.0008170300
atom   3.502813    7.663608   3.769403 Al  0.0   0.0  0.0012558400  -0.0000006700  -0.0026296600
atom   3.489513    11.449954   0.000006 Al  0.0   0.0  0.0006051550  -0.0019268400  -0.0000013150
atom   0.000017    7.663578   0.000020 Al  0.0   0.0  -0.0000024600  0.0000022150  -0.0000022300
atom   6.897256    3.892014   3.769433 Al  0.0   0.0  -0.0000019900  -0.0027254950  0.0026246100
atom   10.364327    0.000012   3.815458 Al  0.0   0.0  -0.0005698300  -0.0000012150  -0.0013194550
atom   10.304964    3.877248   0.000015 Al  0.0   0.0  -0.0006065200  0.0019273750  -0.0000017050
atom   6.897252    15.327176   0.000009 Al  0.0   0.0  -0.0000023500  0.0000027650  -0.0000013700
atom   13.794482    3.811280   3.815455 Al  0.0   0.0  0.0000007100  0.0021920250  0.0008194900
atom   3.430147    15.327200   3.815482 Al  0.0   0.0  0.0005707350  0.0000009500  -0.0013228700
atom   3.489515    3.877268   15.327203 Al  0.0   0.0  0.0006080150  0.0019248400  0.0000005500
atom   6.897234    11.435203   3.769401 Al  0.0   0.0  0.0000010600  0.0027243800  0.0026277850
atom   13.794471    15.327200   15.327183 Si  0.0   0.0  0.0000009900  -0.0000001550  0.0000013500
energy -598.153310830000009
charge 0.000000000000000
end
begin
comment uuid: 6e480ac1-4952-4aa6-a1af-8fab3dc4002e 
lattice 13.9213360519 0.0000000000 0.0000000000
lattice 0.0000000000 13.9213360519 0.0000000000
lattice 0.0000000000 0.0000000000 13.9213360519
stress 0.00132993490896807232 0.00000000000000000000 0.00000000000000000000
stress 0.00000000000000000000 0.00132993490896807232 0.00000000000000000000
stress 0.00000000000000000000 0.00000000000000000000 0.00132993490896807232
atom   0.000000    0.000000   0.000000 Al  0.0   0.0  -0.0000000600  -0.0000000600  -0.0000000600
atom   10.422539    10.422539   6.960668 Al  0.0   0.0  0.0007417450  0.0007417450  -0.0000000650
atom   0.000000    10.438913   10.438913 Al  0.0   0.0  -0.0000000600  -0.0001174150  -0.0001174150
atom   3.498796    6.960668   10.422539 Al  0.0   0.0  -0.0007416200  -0.0000000650  0.0007417500
atom   3.498796    10.422539   6.960668 Al  0.0   0.0  -0.0007416200  0.0007417500  -0.0000000650
atom   0.000000    6.960668   6.960668 Al  0.0   0.0  -0.0000000650  -0.0000000650  -0.0000000650
atom   6.960668    3.498796   10.422539 Al  0.0   0.0  -0.0000000650  -0.0007416150  0.0007417500
atom   10.438913    0.000000   10.438913 Al  0.0   0.0  -0.0001174150  -0.0000000600  -0.0001174150
atom   10.422539    3.498796   6.960668 Al  0.0   0.0  0.0007417500  -0.0007416200  -0.0000000650
atom   6.960668    0.000000   6.960668 Al  0.0   0.0  -0.0000000650  -0.0000000650  -0.0000000650
atom   0.000000    3.482422   10.438913 Al  0.0   0.0  -0.0000000600  0.0001175400  -0.0001174150
atom   3.482422    0.000000   10.438913 Al  0.0   0.0  0.0001175400  -0.0000000650  -0.0001174150
atom   3.498796    3.498796   6.960668 Al  0.0   0.0  -0.0007416250  -0.0007416250  -0.0000000650
atom   0.000000    0.000000   6.960668 Al  0.0   0.0  -0.0000000600  -0.0000000600  -0.0000000600
atom   10.422539    6.960668   10.422539 Al  0.0   0.0  0.0007417400  -0.0000000650  0.0007417450
atom   6.960668    10.422539   3.498796 Al  0.0   0.0  -0.0000000650  0.0007417450  -0.0007416200
atom   10.438913    10.438913   0.000000 Al  0.0   0.0  -0.0001174200  -0.0001174200  -0.0000000600
atom   6.960668    6.960668   0.000000 Al  0.0   0.0  -0.0000000650  -0.0000000650  -0.0000000650
atom   0.000000    10.438913   3.482422 Al  0.0   0.0  -0.0000000600  -0.0001174150  0.0001175400
atom   3.498796    6.960668   3.498796 Al  0.0   0.0  -0.0007416200  -0.0000000650  -0.0007416250
atom   3.482422    10.438913   0.000000 Al  0.0   0.0  0.0001175400  -0.0001174150  -0.0000000600
atom   0.000000    6.960668   0.000000 Al  0.0   0.0  -0.0000000600  -0.0000000600  -0.0000000600
atom   6.960668    3.498796   3.498796 Al  0.0   0.0  -0.0000000650  -0.0007416200  -0.0007416250
atom   10.438913    0.000000   3.482422 Al  0.0   0.0  -0.0001174150  -0.0000000600  0.0001175400
atom   10.438913    3.482422   0.000000 Al  0.0   0.0  -0.0001174150  0.0001175400  -0.0000000650
atom   6.960668    0.000000   0.000000 Al  0.0   0.0  -0.0000000600  -0.0000000600  -0.0000000600
atom   0.000000    3.482422   3.482422 Al  0.0   0.0  -0.0000000600  0.0001175400  0.0001175400
atom   3.482422    0.000000   3.482422 Al  0.0   0.0  0.0001175400  -0.0000000600  0.0001175400
atom   3.482422    3.482422   0.000000 Al  0.0   0.0  0.0001175400  0.0001175400  -0.0000000600
atom   10.422539    6.960668   3.498796 Al  0.0   0.0  0.0007417450  -0.0000000650  -0.0007416200
atom   6.960668    10.422539   10.422539 Al  0.0   0.0  -0.0000000650  0.0007417400  0.0007417450
atom   6.960668    6.960668   6.960668 Si  0.0   0.0  -0.0000000500  -0.0000000500  -0.0000000500
energy -617.548105429999964
charge 0.000000000000000
end
begin
comment uuid: 5b1c5b35-ad1f-4fbe-9dfd-38473618438f 
lattice 7.3822970275 0.0000000000 0.0000000000
lattice 0.0000000000 7.3822970275 0.0000000000
lattice 0.0000000000 0.0000000000 7.3822970275
stress 0.00061189995811642176 0.00002546499825696140 -0.00002650499818577507
stress 0.00002546499825696140 0.00062938495691960148 -0.00003004999794312547
stress -0.00002650499818577507 -0.00003004999794312547 0.00062404495728511601
atom   0.000000    3.691149   3.691149 Al  0.0   0.0  0.0104465500  0.0075358000  -0.0000887550
atom   3.878261    0.251778   3.437588 Al  0.0   0.0  -0.0182753450  -0.0164428900  0.0203902750
atom   3.807441    3.711954   0.026358 Al  0.0   0.0  -0.0119256550  0.0064945750  -0.0106764500
atom   7.307572    7.359245   7.360535 Mg  0.0   0.0  0.0197544500  0.0024125150  -0.0096250650
energy -76.036331770000004
charge 0.000000000000000
end
begin
comment uuid: c4df047e-f453-4c8e-bc44-cee7519abfd5 
lattice 11.9387770445 0.0000000000 0.0000000000
lattice 0.0000000000 11.8597120442 0.0000000000
lattice 0.0000000000 0.0000000000 11.8597120442
stress 0.00004806499671002748 0.00000000000000000000 0.00000000000000000000
stress 0.00000000000000000000 0.00006978499522332814 0.00000000000000000000
stress 0.00000000000000000000 0.00000000000000000000 0.00006978499522332814
atom   2.984694    2.964928   2.964928 Mg  0.0   0.0  0.0000000200  -0.0000000600  -0.0000000600
atom   8.954083    8.894784   8.894784 Mg  0.0   0.0  -0.0000000350  0.0000000600  0.0000000600
atom   8.954083    8.894784   2.964928 Mg  0.0   0.0  -0.0000000350  0.0000000600  -0.0000000600
atom   2.984694    2.964928   8.894784 Mg  0.0   0.0  0.0000000200  -0.0000000600  0.0000000600
atom   8.954083    2.964928   8.894784 Mg  0.0   0.0  -0.0000000350  -0.0000000600  0.0000000600
atom   2.984694    8.894784   2.964928 Mg  0.0   0.0  0.0000000200  0.0000000600  -0.0000000600
atom   2.984694    8.894784   8.894784 Mg  0.0   0.0  0.0000000200  0.0000000600  0.0000000600
atom   8.954083    2.964928   2.964928 Mg  0.0   0.0  -0.0000000350  -0.0000000600  -0.0000000600
atom   0.000000    0.000000   0.000000 Si  0.0   0.0  -0.0000000100  0.0000000000  -0.0000000000
atom   5.969388    5.929856   0.000000 Si  0.0   0.0  0.0000000350  0.0000000000  -0.0000000000
atom   5.969388    0.000000   5.929856 Si  0.0   0.0  0.0000000350  -0.0000000000  0.0000000000
atom   0.000000    5.929856   5.929856 Si  0.0   0.0  -0.0000000100  -0.0000000000  0.0000000000
energy -157.376767819999998
charge 0.000000000000000
end
begin
comment uuid: b86b02c0-36e7-4de7-989b-23590f6f3dbc 
lattice 7.1299580266 0.0000000000 0.0000000000
lattice 0.0000000000 7.1299580266 0.0000000000
lattice 0.0000000000 0.0000000000 7.1299580266
stress 0.00099558493185379626 0.00007631999477601784 -0.00000018999998699480
stress 0.00007631999477601784 0.00099449493192840474 -0.00003788499740683223
stress -0.00000018999998699480 -0.00003788499740683223 0.00092520993667085240
atom   0.000000    0.000000   0.000000 Al  0.0   0.0  0.0254890950  0.0263549800  0.0170987850
atom   3.856474    3.965177   6.938908 Al  0.0   0.0  -0.0233940550  -0.0342916850  0.0343519000
atom   3.731641    0.168586   3.722692 Al  0.0   0.0  -0.0088614100  0.0109464300  -0.0270839700
atom   0.181016    3.656880   3.709363 Al  0.0   0.0  0.0067663700  -0.0030097300  -0.0243667150
energy -78.959933285000005
charge 0.000000000000000
end
begin
comment uuid: 774db375-bb03-45bd-aaea-e65e2addec16 
lattice 15.2871270570 0.0000000000 0.0000000000
lattice 0.0000000000 15.2871270570 0.0000000000
lattice 0.0000000000 0.0000000000 15.2871270570
stress -0.00003685499747733408 0.00000149499989766964 0.00000704999951743875
stress 0.00000149499989766964 -0.00003799499739930290 -0.00000653999955234744
stress 0.00000704999951743875 -0.00000653999955234744 -0.00007297499500497774
atom   15.202397    15.223726   15.239250 Al  0.0   0.0  0.0010854300  0.0015806850  -0.0033779250
atom   0.029909    11.605446   11.288461 Al  0.0   0.0  0.0023336750  0.0041013750  -0.0020657250
atom   15.172095    7.506689   7.513134 Al  0.0   0.0  -0.0010070750  0.0012850400  -0.0015259250
atom   7.646347    3.547366   11.302457 Al  0.0   0.0  -0.0025682500  0.0026099700  0.0012437650
atom   11.370573    15.158249   11.391824 Al  0.0   0.0  0.0004929850  -0.0004398900  -0.0009827850
atom   11.540066    3.508917   7.673728 Al  0.0   0.0  0.0018527350  0.0012405300  -0.0011011650
atom   7.252913    15.201312   7.485449 Al  0.0   0.0  0.0022012900  -0.0009925850  -0.0021943750
atom   4.087845    3.910368   7.192194 Al  0.0   0.0  -0.0003032350  -0.0027227100  0.0041328650
atom   11.888626    7.721575   3.225234 Al  0.0   0.0  0.0004464650  -0.0015447000  0.0019112100
atom   15.213511    11.700449   4.026949 Al  0.0   0.0  0.0011383500  -0.0018066100  -0.0000051750
atom   7.505984    11.641999   11.219119 Al  0.0   0.0  -0.0017099350  -0.0031174550  0.0021433200
atom   3.401667    11.350554   15.198358 Al  0.0   0.0  0.0016087800  0.0010109300  0.0022140500
atom   15.154619    3.536555   3.922263 Al  0.0   0.0  0.0024042000  -0.0012944500  -0.0016617250
atom   3.438428    7.680008   3.652267 Al  0.0   0.0  0.0013676650  0.0008211600  -0.0027035500
atom   11.389312    3.550712   0.093624 Al  0.0   0.0  0.0035829600  0.0021089500  -0.0032997200
atom   11.239087    15.038699   3.915611 Al  0.0   0.0  -0.0004717050  0.0000023450  -0.0010069300
atom   7.473008    7.644021   0.024021 Mg  0.0   0.0  0.0016031250  0.0019922400  0.0024414700
atom   3.990954    7.632381   11.013634 Mg  0.0   0.0  -0.0013638800  0.0007687400  0.0026135000
atom   7.243755    15.199609   0.100806 Mg  0.0   0.0  0.0002823850  -0.0021276950  0.0006202600
atom   11.703141    7.592775   11.715944 Mg  0.0   0.0  -0.0002118450  0.0007325750  0.0007062200
atom   7.940235    3.923781   3.905447 Si  0.0   0.0  -0.0003429600  0.0011915000  0.0047085400
atom   0.441012    0.677681   8.782436 Si  0.0   0.0  -0.0014902400  0.0058888450  0.0063816150
atom   3.487052    0.028283   3.708951 Si  0.0   0.0  -0.0003887000  -0.0014147400  -0.0007248000
atom   3.684620    11.542870   7.434044 Si  0.0   0.0  0.0039217100  0.0039096150  -0.0004696550
atom   11.506318    11.546681   15.215622 Si  0.0   0.0  0.0004983350  0.0023944950  0.0013231900
atom   3.682596    3.877185   0.149987 Si  0.0   0.0  -0.0015947450  0.0010766100  -0.0013526000
atom   8.674346    7.701106   7.357771 Si  0.0   0.0  -0.0058498300  0.0010964850  -0.0009355150
atom   11.548310    11.535903   7.647055 Si  0.0   0.0  0.0001629800  -0.0009549050  0.0013772750
atom   0.260025    4.196676   12.310392 Si  0.0   0.0  -0.0026382000  -0.0123340950  -0.0071165400
atom   7.603502    11.256023   4.135535 Si  0.0   0.0  -0.0050424700  -0.0050622500  -0.0012931750
energy -440.150406939999982
charge 0.000000000000000
end
begin
comment uuid: ae9adaa9-2777-41af-b647-8092a58741d2 
lattice 15.9402930595 0.0000000000 0.0000000000
lattice 0.0000000000 15.9402930595 0.0000000000
lattice 0.0000000000 0.0000000000 15.9402930595
stress -0.00026350498196350342 0.00000000000000000000 0.00000000000000000000
stress 0.00000000000000000000 -0.00026350498196350342 0.00000000000000000000
stress 0.00000000000000000000 0.00000000000000000000 -0.00026714498171435123
atom   0.000014    15.940284   7.970156 Al  0.0   0.0  -0.0000009800  0.0000005950  -0.0000008100
atom   11.957429    11.957409   7.970162 Al  0.0   0.0  0.0000167550  0.0000180450  -0.0000007750
atom   7.970167    7.970133   7.970164 Al  0.0   0.0  -0.0000009300  0.0000009250  -0.0000008450
atom   15.940286    11.976579   11.972188 Al  0.0   0.0  0.0000004150  0.0001661550  0.0003314600
atom   4.047722    7.970135   12.020111 Al  0.0   0.0  -0.0006841300  0.0000007550  -0.0005517050
atom   3.982865    11.957441   7.970137 Al  0.0   0.0  -0.0000167200  0.0000162600  0.0000004550
atom   15.940279    7.970149   7.970124 Al  0.0   0.0  0.0000007000  -0.0000004400  0.0000008500
atom   7.970145    4.047723   12.020085 Al  0.0   0.0  0.0000003050  -0.0006845550  -0.0005502100
atom   11.976579    15.940279   11.972218 Al  0.0   0.0  0.0001666250  0.0000008750  0.0003301850
atom   11.957401    3.982889   7.970138 Al  0.0   0.0  0.0000182550  -0.0000181950  0.0000005650
atom   7.970121    0.000016   7.970132 Al  0.0   0.0  0.0000009600  -0.0000006100  0.0000006100
atom   0.000013    3.963704   11.972212 Al  0.0   0.0  -0.0000007250  -0.0001664400  0.0003304500
atom   3.963707    0.000008   11.972192 Al  0.0   0.0  -0.0001662300  -0.0000003200  0.0003316200
atom   3.982886    3.982864   7.970154 Al  0.0   0.0  -0.0000179250  -0.0000166050  -0.0000004550
atom   11.892574    7.970159   12.020093 Al  0.0   0.0  0.0006845750  -0.0000005050  -0.0005503900
atom   7.970162    11.892582   12.020106 Al  0.0   0.0  -0.0000009300  0.0006839050  -0.0005515550
atom   11.892601    7.970138   3.920206 Al  0.0   0.0  0.0006829750  0.0000007900  0.0005507000
atom   11.907939    11.907975   15.940286 Al  0.0   0.0  0.0007455900  0.0007435000  0.0000005500
atom   0.000010    11.976546   3.968098 Al  0.0   0.0  -0.0000007100  0.0001679050  -0.0003311800
atom   4.047695    7.970153   3.920179 Al  0.0   0.0  -0.0006825700  -0.0000002450  0.0005521000
atom   4.032326    11.907951   0.000006 Al  0.0   0.0  -0.0007445650  0.0007448500  -0.0000006000
atom   0.000019    7.970121   0.000021 Al  0.0   0.0  -0.0000009150  0.0000009000  -0.0000010900
atom   7.970162    4.047695   3.920210 Al  0.0   0.0  -0.0000008050  -0.0006831350  0.0005505400
atom   11.976555    0.000013   3.968076 Al  0.0   0.0  0.0001680150  -0.0000005450  -0.0003300050
atom   11.907958    4.032338   0.000016 Al  0.0   0.0  0.0007442300  -0.0007444200  -0.0000008150
atom   7.970157    15.940262   0.000010 Al  0.0   0.0  -0.0000008950  0.0000012700  -0.0000007100
atom   15.940291    3.963731   3.968073 Al  0.0   0.0  0.0000002500  -0.0001679600  -0.0003301050
atom   3.963726    15.940287   3.968101 Al  0.0   0.0  -0.0001675450  0.0000005400  -0.0003315400
atom   4.032328    4.032358   15.940291 Al  0.0   0.0  -0.0007435400  -0.0007456400  0.0000002900
atom   7.970137    11.892611   3.920177 Al  0.0   0.0  0.0000003800  0.0006825000  0.0005520700
atom   15.940278    15.940287   15.940270 Si  0.0   0.0  0.0000000850  -0.0000001500  0.0000003300
energy -598.128846674999977
charge 0.000000000000000
end
begin
comment uuid: acddb181-532c-4bd9-98b8-1153d072b184 
lattice 15.2871270570 0.0000000000 0.0000000000
lattice 0.0000000000 15.2871270570 0.0000000000
lattice 0.0000000000 0.0000000000 15.2871270570
stress -0.00003128499785859170 -0.00001240999915055531 0.00000110499992436451
stress -0.00001240999915055531 -0.00004097499719532666 0.00000549499962387602
stress 0.00000110499992436451 0.00000549499962387602 -0.00004776999673021976
atom   0.015146    0.071953   0.103763 Al  0.0   0.0  -0.0013490450  -0.0008183000  0.0032966750
atom   7.563098    7.593301   7.484035 Al  0.0   0.0  0.0015385900  0.0040047900  0.0008993200
atom   15.256558    11.540378   11.588939 Al  0.0   0.0  0.0000718000  0.0004063900  -0.0028552150
atom   7.447945    3.695263   11.595286 Al  0.0   0.0  -0.0005104250  0.0003721150  -0.0001952450
atom   0.043805    3.830827   11.429253 Al  0.0   0.0  0.0007619950  -0.0019122200  -0.0006664300
atom   11.437616    7.417351   11.700888 Al  0.0   0.0  -0.0007649700  -0.0013921000  -0.0018742350
atom   7.659889    11.518967   3.887287 Al  0.0   0.0  0.0013641050  0.0008772400  0.0010511850
atom   11.478407    7.529557   3.563911 Al  0.0   0.0  -0.0005444650  -0.0001285400  0.0022257600
atom   11.317490    11.397399   0.005248 Al  0.0   0.0  -0.0022079850  0.0014425900  -0.0006164700
atom   7.688840    7.300877   0.161047 Al  0.0   0.0  -0.0004418800  0.0023011500  -0.0001735200