################################################################################
# Symmetry function scaling data.
################################################################################
# Col  Name     Description
################################################################################
# 1    e_index  Element index.
# 2    sf_index Symmetry function index.
# 3    sf_min   Symmetry function minimum.
# 4    sf_max   Symmetry function maximum.
# 5    sf_mean  Symmetry function mean.
# 6    sf_sigma Symmetry function sigma.
#########################################################################################################################
#        1          2                        3                        4                        5                        6
#  e_index   sf_index                   sf_min                   sf_max                  sf_mean                 sf_sigma
#########################################################################################################################
         1          1   1.0139920811417777E+00   9.4977580910223161E+00   2.2603947375875837E+00   7.2917921615978920E-01
         1          2   6.8639888681304784E-01   4.9504853613627828E+00   1.3238211075580624E+00   3.6434689365904976E-01
         1          3   7.1341916857589449E-01   7.0591216814523277E+00   1.6440474597147767E+00   5.4236777436756145E-01
         1          4   5.3022482894128020E-01   3.7334888482543862E+00   1.0164037225981479E+00   2.7047255535792897E-01
         1          5   3.8068389663107222E-01   4.1085315343122639E+00   9.1344601272927439E-01   3.1366034245622826E-01
         1          6   3.6209352253798233E-01   2.2581437871512726E+00   6.5376753757281358E-01   1.5558515057408684E-01
         1          7   1.8919103878435897E-01   2.2208902755745816E+00   4.6347173198472152E-01   1.6558095671706519E-01
         1          8   2.6704178695764308E-01   1.3165499962653218E+00   4.3006152417867660E-01   8.2524577564005289E-02
         1          9   2.3432552582413180E-01   9.4744522639629492E-01   3.6965740609827991E-01   5.3217971488250207E-02
         1         10   2.2248910067848976E-01   2.7541033700513253E+00   5.5215780526487013E-01   2.0687626999491870E-01
         1         11   1.3374237955415058E-01   5.6384631031683308E-01   2.7069878187908808E-01   2.6696058605315133E-02
         1         12   1.2079214864210941E-01   1.7204357571854254E+00   3.0249171900250166E-01   1.1773155627500735E-01
         1         13   4.8458872613975142E-02   3.5942380169808319E-01   1.8386453271773848E-01   2.0155336184978227E-02
         1         14   2.7024966891331988E-02   9.0926173158416757E-01   1.4826162886702932E-01   5.2882935044636349E-02
         1         15   2.4543106515324568E-03   2.8537946241644740E-01   7.4223588075560523E-02   1.8915314556467201E-02
         1         16   2.2422507599479186E-04   3.1547402145398790E-01   4.1860830002911242E-02   2.1825843780429340E-02
         1         17   2.1854219731237961E-04   1.3831176227811709E-01   1.9018235302043045E-02   9.6923971515768016E-03
         1         18   4.4901398644641138E-03   5.7051242285921910E-01   2.4964676138172499E-02   3.8058259818075438E-02
         1         19   2.7002790915257668E-04   2.1672023165088039E-01   1.8218200796318008E-02   1.3981346922046915E-02
         1         20   5.1394921007966061E-02   1.6534022015443939E+00   1.5020874224913386E-01   1.1090825110094138E-01
         1         21   3.4073471604482270E-03   3.1549770082510104E-01   1.8995158449171292E-02   2.0234498359001558E-02
         1         22   1.3121382132811785E-04   1.0256295213721282E-01   6.8811414313411836E-03   6.6213295919552058E-03
         1         23   3.4213548306919424E-02   9.0691679969751671E-01   8.4412203692533147E-02   5.8153501743683181E-02
         1         24   4.1201879956648322E-04   1.5669952770939763E-01   4.9421419783389660E-03   9.8425761308934545E-03
         1         25   8.6889007793241658E-04   5.9139541103707262E-02   3.7908389775993868E-03   3.2747112446898418E-03
         1         26   8.7040247660959361E-03   1.9376799602864136E-01   2.4817287521716011E-02   1.0864140676357050E-02
         1         27   1.6279340881271008E-04   9.8215755603321513E-03   1.9671395959884683E-03   5.5886688381775725E-04
         2          1   1.4434251644234051E+00   9.8852032214270888E+00   2.6476422151161225E+00   7.2733611282140742E-01
         2          2   3.8469125433437429E-01   4.5675215892628467E+00   9.6237285318012755E-01   3.6163011396961459E-01
         2          3   1.1626875062562141E+00   7.4474515009798354E+00   2.0328074451962936E+00   5.3924172771802847E-01
         2          4   2.4544442341825734E-01   3.3538165775552784E+00   6.5956400271727467E-01   2.6643206569702149E-01
         2          5   8.2185539958507070E-01   4.4967534692006161E+00   1.3075350751456283E+00   3.0877185488949693E-01
         2          6   9.3831855817988905E-02   1.8807875512399708E+00   3.1156069171380063E-01   1.4873342201745832E-01
         2          7   5.6949141690859717E-01   2.6055246326610249E+00   8.6012304835735376E-01   1.6131223998750543E-01
         2          8   2.2912282514974191E-02   9.3743651884038204E-01   1.1654780379239377E-01   7.1678408993491011E-02
         2          9   5.1802225563760551E-01   1.8578962133017354E+00   7.3931481219655926E-01   9.8654485822510019E-02
         2         10   1.1030204988383335E-01   2.8912420471413585E+00   4.8849657684007453E-01   2.4463147994064272E-01
         2         11   3.6148389791073926E-01   1.0810856874313730E+00   5.4139756375817627E-01   4.6101468386091610E-02
         2         12   2.8337474251498265E-02   2.5147758585456526E+00   3.3964122119934642E-01   2.1619193868418723E-01
         2         13   1.4352871952342247E-01   6.5503429041515959E-01   3.6772906543547762E-01   3.1517609332029878E-02
         2         14   2.1788022334140573E-03   2.2905999993694444E+00   2.0139532391348280E-01   1.8915788338443079E-01
         2         15   7.2421508479313512E-03   4.1980710681015926E-01   1.4844717615112094E-01   2.7811187931855667E-02
         2         16   1.3956056202249898E-06   2.0180356614099630E+00   6.5342136725642444E-02   1.4287305968641703E-01
         2         17   2.3287495045603364E-03   3.4319227826170262E-01   1.7551983209942983E-02   2.1924428510969138E-02
         2         18   2.0739240662834366E-05   5.6568536355828418E-02   1.0700369320778326E-03   3.3111564867629351E-03
         2         19   4.7750201291023343E-02   2.9504748026822152E+00   2.1009867916772967E-01   2.0427300874224696E-01
         2         20   1.0305478833859403E-03   4.8594103803931116E-01   1.3292176987042218E-02   3.1957125525737824E-02
         2         21   8.3254800586476871E-03   2.6943765261840680E-01   3.2239304730842452E-02   1.7014664077306434E-02
         2         22   1.4327655039840001E-02   1.3871282089845993E+00   7.8601396584900854E-02   9.3943754383554540E-02
         2         23   1.9759831791959868E-02   4.1063243161904089E-01   5.1049776649751279E-02   2.5482669251984523E-02
         2         24   6.2800954285628337E-04   2.3505014002218594E-01   7.6849258089972819E-03   1.4430358808519245E-02
         2         25   3.6565666316001445E-06   3.5430179480123003E-02   4.4591255295562061E-04   2.0163156897533333E-03
         2         26   1.7014371172551671E-02   8.1334396068685844E-01   5.2357585491953053E-02   5.3157901970668157E-02
         2         27   4.5259074808881496E-03   7.7679046586486111E-01   3.9608207829723338E-02   5.0520632412756790E-02
         2         28   1.7574896842165177E-05   9.7757167085459881E-02   1.2660184900086847E-03   5.7177479736320756E-03
         2         29   5.8469236684166098E-03   1.0205551990696606E-01   1.6728641743617885E-02   5.5063250273753549E-03
         2         30   3.4729465399378763E-03   1.5400706357418056E-01   1.1879484755697552E-02   8.8441587523401827E-03
