Carbon chain, first structure from input.data

12 atoms

2 atom types

  -12.94 12.67 xlo xhi
   -0.36  1.20 ylo yhi
   -0.67  1.17 zlo zhi

Atoms

1  2  0.0   1.1729073318400078  -0.17250595988097372  -0.66741810230359422 
2  2  0.0  -1.1595817453608341  -0.35063784106789647  -0.46759951235815161
3  2  0.0   3.7259094240411681  -0.083808446129817402  -0.22980808620118351
4  2  0.0  -3.6915315204094927  -0.33414993292840278  -0.21088572536199013
5  2  0.0   6.0775914248949645  -0.16674672212588620  -0.14499820679122288
6  2  0.0  -6.0680299107700124  -0.0025620260955245030  -0.070543207699589230 
7  2  0.0   8.5916667587931013  -0.080658783933167305   0.40220650606187225
8  2  0.0  -8.6089840636623833   0.11721101618520001   0.098323591084281514
9  2  0.0   10.870494591100982   0.51580223738887498   0.43585444122535055
10 2  0.0  -10.887890663537627   0.41179249277052421   0.69490967680382398
11 1  0.0   12.661796981509699   1.1948282077976258   1.168905425796274     
12 1  0.0  -12.930485451086453   0.52506382642642058   0.72809053422821779  
  
