Carbon chain, first structure from input.data

12 atoms

2 atom types

  -12.94 12.67 xlo xhi
   -0.36  1.20 ylo yhi
   -0.67  1.17 zlo zhi

Atoms

1  2  -2.3599719595358937E-03   1.1729073318400078 -1.7250595988097372E-01 -6.6741810230359422E-01
2  2  -8.4907158646713859E-03  -1.1595817453608341 -3.5063784106789647E-01 -4.6759951235815161E-01
3  2  -1.0534113290044665E-02   3.7259094240411681 -8.3808446129817402E-02 -2.2980808620118351E-01
4  2  -7.1556348953342435E-03  -3.6915315204094927 -3.3414993292840278E-01 -2.1088572536199013E-01
5  2   8.1462340324302566E-04   6.0775914248949645 -1.6674672212588620E-01 -1.4499820679122288E-01
6  2   8.3432748292313285E-04  -6.0680299107700124 -2.5620260955245030E-03 -7.0543207699589230E-02
7  2  -2.8345993789409479E-02   8.5916667587931013 -8.0658783933167305E-02  4.0220650606187225E-01
8  2  -3.2458644274754651E-02  -8.6089840636623833  0.11721101618520001    9.8323591084281514E-02
9  2  -6.0647343034107404E-02  10.870494591100982  5.1580223738887498E-01  4.3585444122535055E-01
10 2  -5.6141778584216068E-02 -10.887890663537627  4.1179249277052421E-01  6.9490967680382398E-01
11 1   1.0154379417885089E-01  12.661796981509699  1.1948282077976258      1.1689054257962741
12 1   1.0294145062705674E-01 -12.930485451086453  5.2506382642642058E-01  7.2809053422821779E-01
