begin
comment Generated from -, TIMESTEP: 4000000
lattice   4.3136617806704315E+01   0.0000000000000000E+00   0.0000000000000000E+00
lattice   0.0000000000000000E+00   4.4828812756568858E+01   0.0000000000000000E+00
lattice   0.0000000000000000E+00   0.0000000000000000E+00   4.2265087452613741E+01
atom   3.4365076016086554E+01   3.0018651108588699E+01   3.2915965987314733E-01  O 0.0000000000000000E+00   0.0000000000000000E+00   0.0000000000000000E+00   0.0000000000000000E+00   0.0000000000000000E+00 
atom   3.3194957594656792E+01   3.0447618940734301E+01   4.1168479377749904E+01  H 0.0000000000000000E+00   0.0000000000000000E+00   0.0000000000000000E+00   0.0000000000000000E+00   0.0000000000000000E+00 
atom   3.3051149435950713E+01   2.8977412009415897E+01   1.3912277173241567E+00  H 0.0000000000000000E+00   0.0000000000000000E+00   0.0000000000000000E+00   0.0000000000000000E+00   0.0000000000000000E+00 
atom   2.0661160046247510E+01   7.6296558776120316E-01   5.0441647080593288E-01  O 0.0000000000000000E+00   0.0000000000000000E+00   0.0000000000000000E+00   0.0000000000000000E+00   0.0000000000000000E+00 
atom   1.9481970939380311E+01   1.3360760601383888E+00   1.7591876309984416E+00  H 0.0000000000000000E+00   0.0000000000000000E+00   0.0000000000000000E+00   0.0000000000000000E+00   0.0000000000000000E+00 
atom   2.2224341503299669E+01   2.7401614740701163E-01   1.4021163193013502E+00  H 0.0000000000000000E+00   0.0000000000000000E+00   0.0000000000000000E+00   0.0000000000000000E+00   0.0000000000000000E+00 
atom   2.4037155782494711E+01   3.6714139769712382E+01   2.0362972600848469E+01  O 0.0000000000000000E+00   0.0000000000000000E+00   0.0000000000000000E+00   0.0000000000000000E+00   0.0000000000000000E+00 
atom   2.5794790058611991E+01   3.6265140840559098E+01   2.0353901915411026E+01  H 0.0000000000000000E+00   0.0000000000000000E+00   0.0000000000000000E+00   0.0000000000000000E+00   0.0000000000000000E+00 
atom   2.3978007354538072E+01   3.8542071857969823E+01   2.0026034431370231E+01  H 0.0000000000000000E+00   0.0000000000000000E+00   0.0000000000000000E+00   0.0000000000000000E+00   0.0000000000000000E+00 
atom   2.6872689844761108E+01   3.1935022379861181E+01   4.1128606156347821E+01  O 0.0000000000000000E+00   0.0000000000000000E+00   0.0000000000000000E+00   0.0000000000000000E+00   0.0000000000000000E+00 
atom   2.6963207726522228E+01   3.3525415893225656E+01   4.1942511201744779E+01  H 0.0000000000000000E+00   0.0000000000000000E+00   0.0000000000000000E+00   0.0000000000000000E+00   0.0000000000000000E+00 
atom   2.6800691279101429E+01   3.2359832814514625E+01   3.9326752288723021E+01  H 0.0000000000000000E+00   0.0000000000000000E+00   0.0000000000000000E+00   0.0000000000000000E+00   0.0000000000000000E+00 
atom   4.0548637867834714E+01   3.1575974414629183E+01   3.3240133387587498E+01  O 0.0000000000000000E+00   0.0000000000000000E+00   0.0000000000000000E+00   0.0000000000000000E+00   0.0000000000000000E+00 
atom   4.1729338755608154E+01   3.2805997154468706E+01   3.4010763704543344E+01  H 0.0000000000000000E+00   0.0000000000000000E+00   0.0000000000000000E+00   0.0000000000000000E+00   0.0000000000000000E+00 
atom   3.9864745980374394E+01   3.2568080634349180E+01   3.1835499953077264E+01  H 0.0000000000000000E+00   0.0000000000000000E+00   0.0000000000000000E+00   0.0000000000000000E+00   0.0000000000000000E+00 
atom   4.2160385286499832E+01   1.9042063482651930E+01   2.0595219942569589E+01  O 0.0000000000000000E+00   0.0000000000000000E+00   0.0000000000000000E+00   0.0000000000000000E+00   0.0000000000000000E+00 
atom  -7.0876068336796771E-02   1.7926180201233528E+01   1.9431148644764789E+01  H 0.0000000000000000E+00   0.0000000000000000E+00   0.0000000000000000E+00   0.0000000000000000E+00   0.0000000000000000E+00 
atom   4.0452450807675191E+01   1.8387159994068760E+01   2.0358059312903187E+01  H 0.0000000000000000E+00   0.0000000000000000E+00   0.0000000000000000E+00   0.0000000000000000E+00   0.0000000000000000E+00 
atom   1.9879380345108149E+01   2.9528456149740379E+01   2.4343491726978389E+01  O 0.0000000000000000E+00   0.0000000000000000E+00   0.0000000000000000E+00   0.0000000000000000E+00   0.0000000000000000E+00 
atom   2.1311981726383831E+01   2.8660126991718780E+01   2.5054595670751027E+01  H 0.0000000000000000E+00   0.0000000000000000E+00   0.0000000000000000E+00   0.0000000000000000E+00   0.0000000000000000E+00 
atom   2.0314584273491988E+01   3.1309145084677819E+01   2.4149038907913269E+01  H 0.0000000000000000E+00   0.0000000000000000E+00   0.0000000000000000E+00   0.0000000000000000E+00   0.0000000000000000E+00 
atom   3.2124616713038876E+01   1.0860596235905504E+00   2.3562278943678869E+01  O 0.0000000000000000E+00   0.0000000000000000E+00   0.0000000000000000E+00   0.0000000000000000E+00   0.0000000000000000E+00 
atom   3.1952084717114232E+01   2.9206586656445088E+00   2.2920338976366708E+01  H 0.0000000000000000E+00   0.0000000000000000E+00   0.0000000000000000E+00   0.0000000000000000E+00   0.0000000000000000E+00 
atom   3.1314869065134076E+01   1.1287258602169088E+00   2.5231285064167828E+01  H 0.0000000000000000E+00   0.0000000000000000E+00   0.0000000000000000E+00   0.0000000000000000E+00   0.0000000000000000E+00 
atom   1.7078069223106759E+01   1.8660471084655629E+01   6.4483143726795724E+00  O 0.0000000000000000E+00   0.0000000000000000E+00   0.0000000000000000E+00   0.0000000000000000E+00   0.0000000000000000E+00 
atom   1.7651884563331478E+01   1.9053345147664746E+01   4.7302698590444523E+00  H 0.0000000000000000E+00   0.0000000000000000E+00   0.0000000000000000E+00   0.0000000000000000E+00   0.0000000000000000E+00 
atom   1.7432714126449333E+01   1.6891687424354828E+01   6.6613998914141002E+00  H 0.0000000000000000E+00   0.0000000000000000E+00   0.0000000000000000E+00   0.0000000000000000E+00   0.0000000000000000E+00 
atom   3.1118715492549434E+01   1.4130041653880909E+01   3.6362527876812941E+01  O 0.0000000000000000E+00   0.0000000000000000E+00   0.0000000000000000E+00   0.0000000000000000E+00   0.0000000000000000E+00 
atom   3.0003966046810710E+01   1.5602761920955929E+01   3.5947732990663340E+01  H 0.0000000000000000E+00   0.0000000000000000E+00   0.0000000000000000E+00   0.0000000000000000E+00   0.0000000000000000E+00 
atom   3.2885042508877596E+01   1.4560785828591341E+01   3.5855325382769422E+01  H 0.0000000000000000E+00   0.0000000000000000E+00   0.0000000000000000E+00   0.0000000000000000E+00   0.0000000000000000E+00 
atom   2.6246434604351190E+01   2.2638892614778136E+01   4.1880906129815500E+01  O 0.0000000000000000E+00   0.0000000000000000E+00   0.0000000000000000E+00   0.0000000000000000E+00   0.0000000000000000E+00 
atom   2.7255737331879669E+01   2.4103808312924698E+01   1.9552013638492541E-01  H 0.0000000000000000E+00   0.0000000000000000E+00   0.0000000000000000E+00   0.0000000000000000E+00   0.0000000000000000E+00 
atom   2.4833675347469910E+01   2.3436734988046297E+01   4.0948704228505264E+01  H 0.0000000000000000E+00   0.0000000000000000E+00   0.0000000000000000E+00   0.0000000000000000E+00   0.0000000000000000E+00 
atom   2.5217667697654868E+01   3.9588413217701181E+01   2.7553758481379028E+01  O 0.0000000000000000E+00   0.0000000000000000E+00   0.0000000000000000E+00   0.0000000000000000E+00   0.0000000000000000E+00 
atom   2.4427195256304628E+01   4.0930118771989179E+01   2.8437583393689589E+01  H 0.0000000000000000E+00   0.0000000000000000E+00   0.0000000000000000E+00   0.0000000000000000E+00   0.0000000000000000E+00 
atom   2.5279461742197430E+01   3.8161481014823906E+01   2.8717640806570547E+01  H 0.0000000000000000E+00   0.0000000000000000E+00   0.0000000000000000E+00   0.0000000000000000E+00   0.0000000000000000E+00 
atom   8.2424940624790721E-01   1.6381347984930859E+01   3.9343570851304939E+01  O 0.0000000000000000E+00   0.0000000000000000E+00   0.0000000000000000E+00   0.0000000000000000E+00   0.0000000000000000E+00 
atom   4.3555192145119513E+01   1.6888682759803675E+01   3.7596519041531344E+01  H 0.0000000000000000E+00   0.0000000000000000E+00   0.0000000000000000E+00   0.0000000000000000E+00   0.0000000000000000E+00 
atom   3.9754716676292112E-01   1.7821867318702971E+01   4.0388022484903509E+01  H 0.0000000000000000E+00   0.0000000000000000E+00   0.0000000000000000E+00   0.0000000000000000E+00   0.0000000000000000E+00 
atom   3.3369067511902317E+00   2.4196593866045177E+01   3.6260482665641746E+01  O 0.0000000000000000E+00   0.0000000000000000E+00   0.0000000000000000E+00   0.0000000000000000E+00   0.0000000000000000E+00 
atom   2.2117127891155262E+00   2.3424073822956540E+01   3.7411325880516941E+01  H 0.0000000000000000E+00   0.0000000000000000E+00   0.0000000000000000E+00   0.0000000000000000E+00   0.0000000000000000E+00 
atom   2.2150632735489806E+00   2.5254084609960056E+01   3.5209228017965103E+01  H 0.0000000000000000E+00   0.0000000000000000E+00   0.0000000000000000E+00   0.0000000000000000E+00   0.0000000000000000E+00 
atom   1.9492175460497428E+01   6.5899021031796119E+00   1.5486288650760804E+01  O 0.0000000000000000E+00   0.0000000000000000E+00   0.0000000000000000E+00   0.0000000000000000E+00   0.0000000000000000E+00 
atom   1.8777216475413880E+01   6.5391818537752604E+00   1.7287367730671154E+01  H 0.0000000000000000E+00   0.0000000000000000E+00   0.0000000000000000E+00   0.0000000000000000E+00   0.0000000000000000E+00 
atom   1.8838235732241991E+01   8.2035581452388620E+00   1.4884543158293301E+01  H 0.0000000000000000E+00   0.0000000000000000E+00   0.0000000000000000E+00   0.0000000000000000E+00   0.0000000000000000E+00 
atom   1.6271553006889047E+01   4.3476097657831163E+00   2.1418949674130978E+00  O 0.0000000000000000E+00   0.0000000000000000E+00   0.0000000000000000E+00   0.0000000000000000E+00   0.0000000000000000E+00 
atom   1.7025969473625462E+01   5.8795729471214200E+00   1.6782884552532735E+00  H 0.0000000000000000E+00   0.0000000000000000E+00   0.0000000000000000E+00   0.0000000000000000E+00   0.0000000000000000E+00 
atom   1.4644404320241607E+01   4.0151313499782848E+00   1.5338151129484479E+00  H 0.0000000000000000E+00   0.0000000000000000E+00   0.0000000000000000E+00   0.0000000000000000E+00   0.0000000000000000E+00 
atom   1.3405103025090037E+01   2.6440832621358457E+01   1.4311899448270916E+01  O 0.0000000000000000E+00   0.0000000000000000E+00   0.0000000000000000E+00   0.0000000000000000E+00   0.0000000000000000E+00 
atom   1.3020619346110550E+01   2.5705729155699260E+01   1.6072236032758099E+01  H 0.0000000000000000E+00   0.0000000000000000E+00   0.0000000000000000E+00   0.0000000000000000E+00   0.0000000000000000E+00 
atom   1.3929936663952581E+01   2.8119854290351260E+01   1.4804853407273125E+01  H 0.0000000000000000E+00   0.0000000000000000E+00   0.0000000000000000E+00   0.0000000000000000E+00   0.0000000000000000E+00 
atom   1.3431729266301190E+01   2.3901796589328377E+01   3.5057671982114542E+01  O 0.0000000000000000E+00   0.0000000000000000E+00   0.0000000000000000E+00   0.0000000000000000E+00   0.0000000000000000E+00 
atom   1.2132807111659783E+01   2.5261454541877978E+01   3.5520276939423987E+01  H 0.0000000000000000E+00   0.0000000000000000E+00   0.0000000000000000E+00   0.0000000000000000E+00   0.0000000000000000E+00 
atom   1.3710218206491927E+01   2.3700540756185180E+01   3.3238810579294544E+01  H 0.0000000000000000E+00   0.0000000000000000E+00   0.0000000000000000E+00   0.0000000000000000E+00   0.0000000000000000E+00 
atom   4.2995455264584159E+01   1.7947420722966203E+01   1.3916077412494628E+01  O 0.0000000000000000E+00   0.0000000000000000E+00   0.0000000000000000E+00   0.0000000000000000E+00   0.0000000000000000E+00 
atom   4.1131051461963672E+01   1.7981095642652701E+01   1.4170377858185525E+01  H 0.0000000000000000E+00   0.0000000000000000E+00   0.0000000000000000E+00   0.0000000000000000E+00   0.0000000000000000E+00 
atom   8.2562512687258560E-01   1.6788905219991832E+01   1.4922961290573124E+01  H 0.0000000000000000E+00   0.0000000000000000E+00   0.0000000000000000E+00   0.0000000000000000E+00   0.0000000000000000E+00 
atom   3.6919040884565753E+01   3.8738792348394298E+01   2.6220745667301909E+01  O 0.0000000000000000E+00   0.0000000000000000E+00   0.0000000000000000E+00   0.0000000000000000E+00   0.0000000000000000E+00 
atom   3.5358694016712789E+01   3.9059100927903899E+01   2.7096444757241429E+01  H 0.0000000000000000E+00   0.0000000000000000E+00   0.0000000000000000E+00   0.0000000000000000E+00   0.0000000000000000E+00 
atom   3.8319138976357273E+01   3.9579720477490298E+01   2.7011407081265425E+01  H 0.0000000000000000E+00   0.0000000000000000E+00   0.0000000000000000E+00   0.0000000000000000E+00   0.0000000000000000E+00 
atom   2.0311041036992989E+00   3.1435189817735584E+01   1.1537120081174036E+01  O 0.0000000000000000E+00   0.0000000000000000E+00   0.0000000000000000E+00   0.0000000000000000E+00   0.0000000000000000E+00 
atom   2.3434210313932877E+00   3.1565202975672221E+01   1.3337783421335173E+01  H 0.0000000000000000E+00   0.0000000000000000E+00   0.0000000000000000E+00   0.0000000000000000E+00   0.0000000000000000E+00 
atom   2.6624540457632478E-01   3.1901007309470778E+01   1.1408694293188949E+01  H 0.0000000000000000E+00   0.0000000000000000E+00   0.0000000000000000E+00   0.0000000000000000E+00   0.0000000000000000E+00 
atom   1.9687006224789108E+01   7.8165044387187645E+00   2.1240030403877470E+00  O 0.0000000000000000E+00   0.0000000000000000E+00   0.0000000000000000E+00   0.0000000000000000E+00   0.0000000000000000E+00 
atom   2.0896430949781109E+01   8.4700284272249888E+00   8.3440101503330877E-01  H 0.0000000000000000E+00   0.0000000000000000E+00   0.0000000000000000E+00   0.0000000000000000E+00   0.0000000000000000E+00 
atom   2.0932524718917591E+01   7.2132471653450203E+00   3.3431352885239409E+00  H 0.0000000000000000E+00   0.0000000000000000E+00   0.0000000000000000E+00   0.0000000000000000E+00   0.0000000000000000E+00 
atom   2.3402207801873910E+01   4.4142842170362456E+01   3.5402924946577102E+01  O 0.0000000000000000E+00   0.0000000000000000E+00   0.0000000000000000E+00   0.0000000000000000E+00   0.0000000000000000E+00 
atom   2.4990711589105590E+01   4.3659261252978936E+01   3.6175444989665742E+01  H 0.0000000000000000E+00   0.0000000000000000E+00   0.0000000000000000E+00   0.0000000000000000E+00   0.0000000000000000E+00 
atom   2.3060356344450391E+01   1.1154732108475824E+00   3.5902001618249585E+01  H 0.0000000000000000E+00   0.0000000000000000E+00   0.0000000000000000E+00   0.0000000000000000E+00   0.0000000000000000E+00 
atom   2.8903389547067988E+01   9.9574129690905409E+00   1.2259619073527460E+01  O 0.0000000000000000E+00   0.0000000000000000E+00   0.0000000000000000E+00   0.0000000000000000E+00   0.0000000000000000E+00 
atom   2.8318897254192947E+01   8.1981535284990539E+00   1.1833013399047861E+01  H 0.0000000000000000E+00   0.0000000000000000E+00   0.0000000000000000E+00   0.0000000000000000E+00   0.0000000000000000E+00 
atom   2.9413993548150550E+01   9.9182578436189246E+00   1.3978154915957109E+01  H 0.0000000000000000E+00   0.0000000000000000E+00   0.0000000000000000E+00   0.0000000000000000E+00   0.0000000000000000E+00 
atom   2.9811402953878392E+01   1.8761635683448943E+00   4.1767711534460787E+01  O 0.0000000000000000E+00   0.0000000000000000E+00   0.0000000000000000E+00   0.0000000000000000E+00   0.0000000000000000E+00 
atom   2.9498842251513270E+01   3.3858525477558850E+00   4.0805651960252305E+01  H 0.0000000000000000E+00   0.0000000000000000E+00   0.0000000000000000E+00   0.0000000000000000E+00   0.0000000000000000E+00 
atom   3.0690314578243672E+01   2.5946242159525248E+00   9.0403175384859025E-01  H 0.0000000000000000E+00   0.0000000000000000E+00   0.0000000000000000E+00   0.0000000000000000E+00   0.0000000000000000E+00 
atom   2.1581645645534390E+01   4.0947266146918206E+00   3.8976775008928463E+01  O 0.0000000000000000E+00   0.0000000000000000E+00   0.0000000000000000E+00   0.0000000000000000E+00   0.0000000000000000E+00 
atom   2.0101801110938709E+01   3.3230569483629404E+00   3.8097674411949903E+01  H 0.0000000000000000E+00   0.0000000000000000E+00   0.0000000000000000E+00   0.0000000000000000E+00   0.0000000000000000E+00 
atom   2.1864159702387990E+01   3.0978015933331808E+00   4.0471548379973264E+01  H 0.0000000000000000E+00   0.0000000000000000E+00   0.0000000000000000E+00   0.0000000000000000E+00   0.0000000000000000E+00 
atom   2.2596806524074552E+01   3.0560624563475741E+01   8.2863375984861651E+00  O 0.0000000000000000E+00   0.0000000000000000E+00   0.0000000000000000E+00   0.0000000000000000E+00   0.0000000000000000E+00 
atom   2.3425451433307352E+01   3.1061213016054463E+01   9.8521646721242444E+00  H 0.0000000000000000E+00   0.0000000000000000E+00   0.0000000000000000E+00   0.0000000000000000E+00   0.0000000000000000E+00 
atom   2.0861471016324312E+01   2.9928511172054140E+01   8.7003576969213157E+00  H 0.0000000000000000E+00   0.0000000000000000E+00   0.0000000000000000E+00   0.0000000000000000E+00   0.0000000000000000E+00 
atom   2.3756531451773910E+01   3.8573630284387583E+01   4.3204638498854440E+00  O 0.0000000000000000E+00   0.0000000000000000E+00   0.0000000000000000E+00   0.0000000000000000E+00   0.0000000000000000E+00 
atom   2.4564200400932631E+01   3.8758823445401980E+01   2.6569001406589488E+00  H 0.0000000000000000E+00   0.0000000000000000E+00   0.0000000000000000E+00   0.0000000000000000E+00   0.0000000000000000E+00 
atom   2.2840581195205750E+01   3.6978512455691103E+01   4.2847291287141962E+00  H 0.0000000000000000E+00   0.0000000000000000E+00   0.0000000000000000E+00   0.0000000000000000E+00   0.0000000000000000E+00 
atom   1.3317929958583974E+01   4.2573991534911904E+01   3.0616152276161934E-01  O 0.0000000000000000E+00   0.0000000000000000E+00   0.0000000000000000E+00   0.0000000000000000E+00   0.0000000000000000E+00 
atom   1.2015228351676967E+01   4.3335551166430299E+01   1.3559540893293118E+00  H 0.0000000000000000E+00   0.0000000000000000E+00   0.0000000000000000E+00   0.0000000000000000E+00   0.0000000000000000E+00 
atom   1.3847374529210551E+01   4.3659072280365656E+01   4.1181896433292785E+01  H 0.0000000000000000E+00   0.0000000000000000E+00   0.0000000000000000E+00   0.0000000000000000E+00   0.0000000000000000E+00 
atom   9.0341664799236394E+00   3.3751616111321823E+01   2.1823541928889590E+01  O 0.0000000000000000E+00   0.0000000000000000E+00   0.0000000000000000E+00   0.0000000000000000E+00   0.0000000000000000E+00 
atom   8.9263009122634145E+00   3.4364076350962307E+01   2.3643159222162708E+01  H 0.0000000000000000E+00   0.0000000000000000E+00   0.0000000000000000E+00   0.0000000000000000E+00   0.0000000000000000E+00 
atom   8.2004382073936064E+00   3.2080342319473502E+01   2.1747196993124469E+01  H 0.0000000000000000E+00   0.0000000000000000E+00   0.0000000000000000E+00   0.0000000000000000E+00   0.0000000000000000E+00 
atom   1.4229609434092007E+01   3.9433077729585023E+01   1.0130578023269669E+01  O 0.0000000000000000E+00   0.0000000000000000E+00   0.0000000000000000E+00   0.0000000000000000E+00   0.0000000000000000E+00 
atom   1.5476771989956022E+01   3.8449853222689185E+01   9.2486428370919089E+00  H 0.0000000000000000E+00   0.0000000000000000E+00   0.0000000000000000E+00   0.0000000000000000E+00   0.0000000000000000E+00 
atom   1.3736882242225734E+01   3.8780555295929183E+01   1.1773846073829892E+01  H 0.0000000000000000E+00   0.0000000000000000E+00   0.0000000000000000E+00   0.0000000000000000E+00   0.0000000000000000E+00 
atom   3.9831864745663673E+01   2.9552077726400377E+01   2.5407029594518228E+01  O 0.0000000000000000E+00   0.0000000000000000E+00   0.0000000000000000E+00   0.0000000000000000E+00   0.0000000000000000E+00 
atom   4.0279351893910714E+01   2.9838371235519578E+01   2.3547350107229747E+01  H 0.0000000000000000E+00   0.0000000000000000E+00   0.0000000000000000E+00   0.0000000000000000E+00   0.0000000000000000E+00 
atom   4.1356495789606718E+01   2.8512350408133816E+01   2.6141566142337588E+01  H 0.0000000000000000E+00   0.0000000000000000E+00   0.0000000000000000E+00   0.0000000000000000E+00   0.0000000000000000E+00 
atom   3.6780146013804952E+01   3.5640537220789246E+00   2.4957274774911827E+01  O 0.0000000000000000E+00   0.0000000000000000E+00   0.0000000000000000E+00   0.0000000000000000E+00   0.0000000000000000E+00 
atom   3.7639215513775831E+01   3.8258185859943805E+00   2.3356298795203667E+01  H 0.0000000000000000E+00   0.0000000000000000E+00   0.0000000000000000E+00   0.0000000000000000E+00   0.0000000000000000E+00 
atom   3.5308805246806870E+01   2.4626835373604288E+00   2.4679862978616789E+01  H 0.0000000000000000E+00   0.0000000000000000E+00   0.0000000000000000E+00   0.0000000000000000E+00   0.0000000000000000E+00 
atom   4.0632163762904469E+01   2.5672092030535417E+01   1.7607827488271383E+01  O 0.0000000000000000E+00   0.0000000000000000E+00   0.0000000000000000E+00   0.0000000000000000E+00   0.0000000000000000E+00 
atom   4.0167858052075516E+01   2.4629530123069660E+01   1.9121876065870740E+01  H 0.0000000000000000E+00   0.0000000000000000E+00   0.0000000000000000E+00   0.0000000000000000E+00   0.0000000000000000E+00 
atom   4.2081961651988628E+01   2.4741401910131419E+01   1.6809059149198148E+01  H 0.0000000000000000E+00   0.0000000000000000E+00   0.0000000000000000E+00   0.0000000000000000E+00   0.0000000000000000E+00 
atom   3.1784088063908317E+01   1.4909345813786301E+01   2.6962463174425910E+01  O 0.0000000000000000E+00   0.0000000000000000E+00   0.0000000000000000E+00   0.0000000000000000E+00   0.0000000000000000E+00 
atom   3.1725317581178231E+01   1.6718399537977067E+01   2.6871189402211666E+01  H 0.0000000000000000E+00   0.0000000000000000E+00   0.0000000000000000E+00   0.0000000000000000E+00   0.0000000000000000E+00 
atom   3.0077854338603192E+01   1.4181461101954396E+01   2.6772923643306068E+01  H 0.0000000000000000E+00   0.0000000000000000E+00   0.0000000000000000E+00   0.0000000000000000E+00   0.0000000000000000E+00 
atom   3.4727525488357593E+01   3.7472059788699008E+00   3.4367732971029263E+01  O 0.0000000000000000E+00   0.0000000000000000E+00   0.0000000000000000E+00   0.0000000000000000E+00   0.0000000000000000E+00 
atom   3.5743253284737591E+01   3.9994088285533884E+00   3.2844424735379185E+01  H 0.0000000000000000E+00   0.0000000000000000E+00   0.0000000000000000E+00   0.0000000000000000E+00   0.0000000000000000E+00 
atom   3.4267755120247351E+01   5.5872701088999159E+00   3.4859817656010385E+01  H 0.0000000000000000E+00   0.0000000000000000E+00   0.0000000000000000E+00   0.0000000000000000E+00   0.0000000000000000E+00 
atom   2.6820155458269269E+01   3.8152221356773182E+01   4.9523448049927099E-01  O 0.0000000000000000E+00   0.0000000000000000E+00   0.0000000000000000E+00   0.0000000000000000E+00   0.0000000000000000E+00 
atom   2.8515806717230710E+01   3.8631077958824704E+01   5.9737644564847037E-01  H 0.0000000000000000E+00   0.0000000000000000E+00   0.0000000000000000E+00   0.0000000000000000E+00   0.0000000000000000E+00 
atom   2.6366054268557431E+01   3.8126143136140534E+01   4.1029773479602383E+01  H 0.0000000000000000E+00   0.0000000000000000E+00   0.0000000000000000E+00   0.0000000000000000E+00   0.0000000000000000E+00 
atom   2.5422702983063672E+01   1.1869740226438829E+01   3.3424570658148788E+01  O 0.0000000000000000E+00   0.0000000000000000E+00   0.0000000000000000E+00   0.0000000000000000E+00   0.0000000000000000E+00 
atom   2.4968979738578390E+01   1.2782345667751933E+01   3.4898368069119506E+01  H 0.0000000000000000E+00   0.0000000000000000E+00   0.0000000000000000E+00   0.0000000000000000E+00   0.0000000000000000E+00 
atom   2.5102772348780633E+01   1.0012044951589788E+01   3.3569701625147822E+01  H 0.0000000000000000E+00   0.0000000000000000E+00   0.0000000000000000E+00   0.0000000000000000E+00   0.0000000000000000E+00 
atom   8.2737784786075750E+00   3.0344817839109979E+01   2.9682157024751668E+01  O 0.0000000000000000E+00   0.0000000000000000E+00   0.0000000000000000E+00   0.0000000000000000E+00   0.0000000000000000E+00 
atom   9.8941619456995920E+00   3.1036835548941344E+01   3.0292538565646069E+01  H 0.0000000000000000E+00   0.0000000000000000E+00   0.0000000000000000E+00   0.0000000000000000E+00   0.0000000000000000E+00 
atom   7.2770991216462004E+00   2.9689649788868220E+01   3.1041437032074704E+01  H 0.0000000000000000E+00   0.0000000000000000E+00   0.0000000000000000E+00   0.0000000000000000E+00   0.0000000000000000E+00 
atom   3.1495148938203190E+01   3.9002409143919905E+01   2.7029926397366868E+01  O 0.0000000000000000E+00   0.0000000000000000E+00   0.0000000000000000E+00   0.0000000000000000E+00   0.0000000000000000E+00 
atom   3.0896672671945435E+01   3.8447774523943103E+01   2.8610493334840790E+01  H 0.0000000000000000E+00   0.0000000000000000E+00   0.0000000000000000E+00   0.0000000000000000E+00   0.0000000000000000E+00 
atom   3.0507389088588631E+01   4.0341091136395420E+01   2.6421623555218549E+01  H 0.0000000000000000E+00   0.0000000000000000E+00   0.0000000000000000E+00   0.0000000000000000E+00   0.0000000000000000E+00 
atom   1.2012497697415072E+00   5.4296291549017415E+00   2.6370034031793107E+01  O 0.0000000000000000E+00   0.0000000000000000E+00   0.0000000000000000E+00   0.0000000000000000E+00   0.0000000000000000E+00 
atom   4.8922363961606080E-01   3.8766900134893567E+00   2.7019532903636467E+01  H 0.0000000000000000E+00   0.0000000000000000E+00   0.0000000000000000E+00   0.0000000000000000E+00   0.0000000000000000E+00 
atom   3.0835700658270637E+00   5.0211081595130365E+00   2.6523101848549906E+01  H 0.0000000000000000E+00   0.0000000000000000E+00   0.0000000000000000E+00   0.0000000000000000E+00   0.0000000000000000E+00 
atom   7.0008778528148241E+00   3.0923829926199900E+01   4.0672216508289161E+00  O 0.0000000000000000E+00   0.0000000000000000E+00   0.0000000000000000E+00   0.0000000000000000E+00   0.0000000000000000E+00 
atom   5.8864685577800087E+00   3.0251276395536383E+01   2.6776304363357646E+00  H 0.0000000000000000E+00   0.0000000000000000E+00   0.0000000000000000E+00   0.0000000000000000E+00   0.0000000000000000E+00 
atom   6.8315961858386007E+00   2.9549243137201177E+01   5.3669563877074289E+00  H 0.0000000000000000E+00   0.0000000000000000E+00   0.0000000000000000E+00   0.0000000000000000E+00   0.0000000000000000E+00 
atom   2.4549082591870231E+01   1.1316700535318112E+00   2.5928405034557748E+01  O 0.0000000000000000E+00   0.0000000000000000E+00   0.0000000000000000E+00   0.0000000000000000E+00   0.0000000000000000E+00 
atom   2.4082320237068629E+01   1.6468245151421534E+00   2.4254296653510227E+01  H 0.0000000000000000E+00   0.0000000000000000E+00   0.0000000000000000E+00   0.0000000000000000E+00   0.0000000000000000E+00 
atom   2.5956361642966389E+01   4.4618864183214775E+01   2.5668378718684469E+01  H 0.0000000000000000E+00   0.0000000000000000E+00   0.0000000000000000E+00   0.0000000000000000E+00   0.0000000000000000E+00 
atom   1.7747315733037880E+01   2.5902449646123738E+01   3.7150921619417105E+01  O 0.0000000000000000E+00   0.0000000000000000E+00   0.0000000000000000E+00   0.0000000000000000E+00   0.0000000000000000E+00 
atom   1.6158982021158149E+01   2.5308130777358141E+01   3.6419408633410221E+01  H 0.0000000000000000E+00   0.0000000000000000E+00   0.0000000000000000E+00   0.0000000000000000E+00   0.0000000000000000E+00 
atom   1.7800057989404326E+01   2.7600368576444538E+01   3.7674564730815987E+01  H 0.0000000000000000E+00   0.0000000000000000E+00   0.0000000000000000E+00   0.0000000000000000E+00   0.0000000000000000E+00 
atom   1.2564212690516696E+01   2.7489252679835896E+01   2.0250155950720309E+01  O 0.0000000000000000E+00   0.0000000000000000E+00   0.0000000000000000E+00   0.0000000000000000E+00   0.0000000000000000E+00 
atom   1.2092140205281927E+01   2.5770546762054298E+01   2.0521520623390391E+01  H 0.0000000000000000E+00   0.0000000000000000E+00   0.0000000000000000E+00   0.0000000000000000E+00   0.0000000000000000E+00 
atom   1.4470398337933382E+01   2.7538952477128536E+01   2.0088395393752627E+01  H 0.0000000000000000E+00   0.0000000000000000E+00   0.0000000000000000E+00   0.0000000000000000E+00   0.0000000000000000E+00 
atom   2.2456088067595594E+00   6.1947225742884768E+00   4.1930605927108139E+01  O 0.0000000000000000E+00   0.0000000000000000E+00   0.0000000000000000E+00   0.0000000000000000E+00   0.0000000000000000E+00 
atom   3.4449423942024073E+00   7.3401989669465246E+00   4.1349137196045582E+01  H 0.0000000000000000E+00   0.0000000000000000E+00   0.0000000000000000E+00   0.0000000000000000E+00   0.0000000000000000E+00 
atom   8.3116580389395511E-01   6.9549216029912611E+00   5.9486877907024482E-01  H 0.0000000000000000E+00   0.0000000000000000E+00   0.0000000000000000E+00   0.0000000000000000E+00   0.0000000000000000E+00 
atom   3.3831039410957274E+01   7.2614729762540762E+00   7.9058412416468862E+00  O 0.0000000000000000E+00   0.0000000000000000E+00   0.0000000000000000E+00   0.0000000000000000E+00   0.0000000000000000E+00 
atom   3.2479885226005273E+01   8.6318645732379800E+00   7.8603555336303881E+00  H 0.0000000000000000E+00   0.0000000000000000E+00   0.0000000000000000E+00   0.0000000000000000E+00   0.0000000000000000E+00 
atom   3.5043109752535194E+01   8.2545618535631320E+00   6.8769609513825962E+00  H 0.0000000000000000E+00   0.0000000000000000E+00   0.0000000000000000E+00   0.0000000000000000E+00   0.0000000000000000E+00 
atom   3.2828728670120150E+01   3.0152821664017498E+01   3.6242530267380147E+01  O 0.0000000000000000E+00   0.0000000000000000E+00   0.0000000000000000E+00   0.0000000000000000E+00   0.0000000000000000E+00 
atom   3.2284298571260472E+01   2.8484382461368380E+01   3.5580937148286864E+01  H 0.0000000000000000E+00   0.0000000000000000E+00   0.0000000000000000E+00   0.0000000000000000E+00   0.0000000000000000E+00 