begin
comment Generated from -, TIMESTEP: 20000000
lattice   4.2888632301285426E+01   0.0000000000000000E+00   0.0000000000000000E+00
lattice   0.0000000000000000E+00   4.4571144109503649E+01   0.0000000000000000E+00
lattice   0.0000000000000000E+00   0.0000000000000000E+00   4.2022085732793251E+01
atom   3.3161137848673654E+01   1.3927124396757034E+01   1.0505195708760620E+00  O   0.0000000000000000E+00   0.0000000000000000E+00  -2.8966030062366786E-02   2.7209599774412358E-03   3.9737021445979022E-03
atom   3.2223644714191565E+01   1.4287155019578089E+01   2.6234312277860092E+00  H   0.0000000000000000E+00   0.0000000000000000E+00   7.9877423752479759E-03   3.3297604748885024E-03  -1.0163833042173860E-02
atom   3.4910646302419877E+01   1.4014769894796297E+01   1.5894694639506219E+00  H   0.0000000000000000E+00   0.0000000000000000E+00   1.1806902826331749E-02  -9.4962509650420770E-03   6.6334365831265214E-03
atom   1.7330051657448287E+01   2.4407356556652555E+01   4.7445732228086959E+00  O   0.0000000000000000E+00   0.0000000000000000E+00   1.5811460277845391E-03   1.5010841412183462E-03  -1.9125345585991278E-02
atom   1.8487357735697664E+01   2.2963605791193348E+01   4.4120381152198815E+00  H   0.0000000000000000E+00   0.0000000000000000E+00  -5.5904666061025567E-03   8.9440761861618659E-03  -2.2307010253202961E-03
atom   1.7365124974473058E+01   2.5403998119091266E+01   3.1352446535935612E+00  H   0.0000000000000000E+00   0.0000000000000000E+00   3.0173737498854130E-04  -1.0125957462634342E-02   1.3857355934526873E-02
atom   3.4769483760299728E+01   3.2926619908541518E+01   1.2372660627730504E+01  O   0.0000000000000000E+00   0.0000000000000000E+00  -7.8096712558967671E-04  -1.6708813976931370E-03  -4.6967806593604744E-03
atom   3.4668761357421488E+01   3.4522871572917659E+01   1.3292182466689656E+01  H   0.0000000000000000E+00   0.0000000000000000E+00   2.2427460962975597E-03  -5.0824240654465877E-03   2.8314700994836396E-03
atom   3.5955475881245007E+01   3.1813193271095756E+01   1.3236681210169323E+01  H   0.0000000000000000E+00   0.0000000000000000E+00   1.4370209345337681E-03   6.0023390484798475E-03   6.1252679756137551E-04
atom   1.0812424019943743E+01   3.0812961229004717E+01   1.9094964502678618E+01  O   0.0000000000000000E+00   0.0000000000000000E+00  -2.3470427905371463E-03  -3.6377522521246236E-02  -2.5116071793401789E-02
atom   1.1842551529455680E+01   2.9323101145905188E+01   1.8553784732767351E+01  H   0.0000000000000000E+00   0.0000000000000000E+00  -5.4041601211747428E-03   2.6031776120279855E-02   1.3699383192364393E-02
atom   1.1789072279897438E+01   3.2006890199707755E+01   2.0046309329714120E+01  H   0.0000000000000000E+00   0.0000000000000000E+00   2.2318059210811134E-02   1.1576413172309452E-02   1.1881649814830975E-02
atom   2.1386254315196847E+01   2.1217120899259594E+01   3.0228626404759456E+00  O   0.0000000000000000E+00   0.0000000000000000E+00  -3.7211047627944229E-03  -3.0535038018364675E-02  -6.9418304222511528E-03
atom   2.1346381093794772E+01   1.9282230311885673E+01   3.2870841483640416E+00  H   0.0000000000000000E+00   0.0000000000000000E+00  -1.3953553121442792E-03   3.0014416067258659E-02   2.7480041531564464E-03
atom   2.1361687875470448E+01   2.1399101525848234E+01   1.1655887745545197E+00  H   0.0000000000000000E+00   0.0000000000000000E+00  -1.0411398826098398E-03   2.7882151104235639E-04   4.4191031441445589E-03
atom   1.4792810865244368E+01   4.2842579845182939E+01   8.0803933814725681E+00  O   0.0000000000000000E+00   0.0000000000000000E+00  -3.3665987871872522E-03  -6.8577288740309921E-03  -2.8876784186482096E-02
atom   1.3450538393116526E+01   4.1982376509532386E+01   7.0313686106326330E+00  H   0.0000000000000000E+00   0.0000000000000000E+00  -3.9991664005394403E-03   2.4098585882657078E-03   1.9900867578244715E-02
atom   1.5871731103505200E+01   4.3069535953732220E+01   6.5522285496611943E+00  H   0.0000000000000000E+00   0.0000000000000000E+00   9.5984017107607067E-03   3.9723373179982382E-03   1.6757485584924722E-02
atom   8.1785426333084335E+00   1.6195872900012731E+01   3.7307067826709321E+01  O   0.0000000000000000E+00   0.0000000000000000E+00   3.2219750123846980E-02  -2.5232964368514989E-02   1.1869876000272317E-02
atom   1.0031078955814927E+01   1.5612023114022840E+01   3.7156834599151715E+01  H   0.0000000000000000E+00   0.0000000000000000E+00  -3.2139503170264025E-02   1.5163248721496001E-02  -5.8178449476993487E-03
atom   7.6761778381648798E+00   1.5178538836419849E+01   3.8874028736027078E+01  H   0.0000000000000000E+00   0.0000000000000000E+00   2.4854739876094436E-03   1.2171976609879754E-02  -1.3594761635027736E-02
atom   3.3509792320175251E+01   3.0109794134989830E+01   3.7570684622234914E+01  O   0.0000000000000000E+00   0.0000000000000000E+00  -2.4366984114817386E-02   4.0565735907979938E-03  -1.8630608770253753E-02
atom   3.4543094569590288E+01   2.9481082250607272E+01   3.8921460861960362E+01  H   0.0000000000000000E+00   0.0000000000000000E+00   3.2145429403138523E-03  -4.6021390788914479E-03   1.6444433411725690E-02
atom   3.1676946943972524E+01   3.0082582078677511E+01   3.8038769785329478E+01  H   0.0000000000000000E+00   0.0000000000000000E+00   1.7672749227715136E-02  -5.4774642137957914E-03   6.2134679695512408E-03
atom   1.6668307360264386E+01   3.7874111896825191E+01   2.9786713708618439E+01  O   0.0000000000000000E+00   0.0000000000000000E+00  -8.5670070269519907E-03  -1.6322015049421015E-02   1.5305810533427134E-02
atom   1.4948051867053890E+01   3.7695343804662308E+01   3.0602508480148206E+01  H   0.0000000000000000E+00   0.0000000000000000E+00   1.5623918606992377E-02   1.2907452028740331E-02  -8.9209921928810349E-03
atom   1.7528775257573535E+01   3.6826447728800872E+01   3.1080987136973160E+01  H   0.0000000000000000E+00   0.0000000000000000E+00   2.5244839795231680E-03   2.4442415972083529E-03  -1.0719182793553356E-02
atom   2.1470914045946287E+01   2.4488614780362951E+01   2.9709423909786921E+01  O   0.0000000000000000E+00   0.0000000000000000E+00  -2.2891817600688102E-02   2.5787240147435258E-02   3.8524086274509525E-02
atom   2.0239946443040363E+01   2.4828954456880229E+01   3.1156198237058600E+01  H   0.0000000000000000E+00   0.0000000000000000E+00   1.9217837385631615E-02   3.2269207224853644E-03  -2.2793479210423458E-02
atom   2.1131708205108687E+01   2.2764806602022794E+01   2.9374375466441478E+01  H   0.0000000000000000E+00   0.0000000000000000E+00  -1.1030583846457888E-03  -3.1710952401599594E-02  -1.1400678629961167E-02
atom   1.7168839121059122E+01   3.4068581410592550E+01   2.5587175323697000E+01  O   0.0000000000000000E+00   0.0000000000000000E+00  -1.9716380198621590E-02  -2.8374406181889303E-03   1.1055440948111428E-02
atom   1.7193197690910914E+01   3.5648203485000060E+01   2.6524668458179079E+01  H   0.0000000000000000E+00   0.0000000000000000E+00  -5.6175370688723658E-03   4.3597476714221633E-03   9.1269257814504765E-03
atom   1.8700122000989616E+01   3.4153997031795107E+01   2.4662343354304685E+01  H   0.0000000000000000E+00   0.0000000000000000E+00   2.3360267204542044E-02  -3.0934051191527892E-03  -1.8122620227859900E-02
atom   6.3288786945237927E+00   2.4841048704130152E+01   4.0656040479257477E+01  O   0.0000000000000000E+00   0.0000000000000000E+00   1.2679921090770185E-02   1.5581390888057490E-03  -2.7633020507912540E-02
atom   7.4482579692878730E+00   2.5986978631060069E+01   4.1613942655973801E+01  H   0.0000000000000000E+00   0.0000000000000000E+00  -6.2061581015624258E-03  -8.0051696813360999E-03  -9.6006017186329798E-03
atom   6.8276530100150259E+00   2.4989392205554950E+01   3.8807132430925954E+01  H   0.0000000000000000E+00   0.0000000000000000E+00  -6.5091617379989296E-03   4.6328213267968245E-03   3.6544684670864851E-02
atom   1.2172081972493343E+01   1.4276137916223862E+01   2.3444414861715078E+01  O   0.0000000000000000E+00   0.0000000000000000E+00  -3.4555309289341168E-03  -1.6583912379098033E-02   2.4679525126150452E-02
atom   1.2115144524112083E+01   1.3810925136851163E+01   2.1647852227262117E+01  H   0.0000000000000000E+00   0.0000000000000000E+00  -1.7677000842540444E-03  -6.1042096360707768E-04  -5.6590389500863238E-03
atom   1.1244396516640496E+01   1.2865230590952731E+01   2.4343735528314600E+01  H   0.0000000000000000E+00   0.0000000000000000E+00   6.0034635891685114E-03   1.9380785153974369E-02  -1.1277765663547348E-02
atom   6.0124062590637779E+00   2.5971957785093225E+00   3.4791086453499396E+01  O   0.0000000000000000E+00   0.0000000000000000E+00  -6.7148057925519547E-04   3.0152567310153529E-03  -2.4082803307522830E-02
atom   5.1885612542082900E+00   3.7328078007541547E+00   3.3564465220698928E+01  H   0.0000000000000000E+00   0.0000000000000000E+00   3.5386176797931085E-03   7.6533010428282517E-03   1.1232739799243770E-02
atom   6.2967911447888492E+00   1.2264451335601871E+00   3.3571835152616842E+01  H   0.0000000000000000E+00   0.0000000000000000E+00   2.6682342751926961E-03  -8.4385940568728734E-03   6.2721569092616166E-03
atom   2.1949203730157969E+01   1.5764448423894489E+01   1.7710022014472148E+01  O   0.0000000000000000E+00   0.0000000000000000E+00  -2.7681629775160917E-03   3.1378320682778474E-02  -3.6782644500318117E-02
atom   2.1741522828163248E+01   1.7518378836791477E+01   1.6935253197285483E+01  H   0.0000000000000000E+00   0.0000000000000000E+00   5.7198933874009848E-03  -3.4183493487981095E-02   8.6111398733362491E-03
atom   2.2147624974101969E+01   1.6219116531446168E+01   1.9439707241085323E+01  H   0.0000000000000000E+00   0.0000000000000000E+00   3.7422675183335138E-03  -1.3246518934634775E-03   2.4902561884752785E-02
atom   3.0637597570932535E+01   3.1710867077793545E+00   2.2652997557298441E+01  O   0.0000000000000000E+00   0.0000000000000000E+00   1.1165308825245003E-02   7.6696438749757649E-03  -6.0811050467589535E-02
atom   3.1780314963436680E+01   1.7544610712303657E+00   2.2845560650230759E+01  H   0.0000000000000000E+00   0.0000000000000000E+00   7.0506325792731011E-03  -1.7059873339893169E-02   1.8589313080370210E-02
atom   3.0807483950271251E+01   3.1914957500135945E+00   2.0691272858838765E+01  H   0.0000000000000000E+00   0.0000000000000000E+00  -1.4680373323693792E-02   1.2473915385042196E-02   4.0820406744700832E-02
atom   1.0923785580949650E+01   4.3691255851423428E+01   1.0872577366238267E+00  O   0.0000000000000000E+00   0.0000000000000000E+00  -2.2135890029494714E-02  -2.7171684714111192E-02  -8.5594001968856710E-03
atom   1.1451208144614130E+01   4.3235831853418631E+01   4.1429127440185965E+01  H   0.0000000000000000E+00   0.0000000000000000E+00   1.2537824032253573E-03  -1.9989086221816866E-03  -6.4080875630334894E-03
atom   1.1666769204582621E+01   7.1029478627785880E-01   1.4291696652835963E+00  H   0.0000000000000000E+00   0.0000000000000000E+00   1.8794114475506354E-02   3.5240983887509542E-02   5.8335014065085773E-03
atom   1.3203655596858692E+00   8.3182849537773382E+00   3.9203219028360834E+01  O   0.0000000000000000E+00   0.0000000000000000E+00  -4.1753223452311340E-02  -1.8466888871425786E-02  -5.0907648802221310E-02
atom   2.0502080277913537E+00   9.4635156820381194E+00   4.0301527856744201E+01  H   0.0000000000000000E+00   0.0000000000000000E+00   2.8912002639994199E-02   3.3218085162976217E-02   4.1257068140038877E-02
atom   2.1436077419049941E+00   6.7184617070101869E+00   3.9192636562017157E+01  H   0.0000000000000000E+00   0.0000000000000000E+00   1.4213990825551751E-02  -1.8396988927486622E-02   5.7342875603850251E-03
atom   2.3572478478233169E+01   3.4889478442680876E+01   8.0552033321223426E+00  O   0.0000000000000000E+00   0.0000000000000000E+00  -1.6393511036667471E-02   3.5117198454429975E-02  -9.0435010280094444E-03
atom   2.3869543426309324E+01   3.6758228615406793E+01   7.8609961774544903E+00  H   0.0000000000000000E+00   0.0000000000000000E+00  -1.0159326381240499E-03  -2.5785045874619543E-02   1.0730212040317368E-03
atom   2.1798970502600369E+01   3.4656097265280074E+01   7.3588959439695296E+00  H   0.0000000000000000E+00   0.0000000000000000E+00   2.3488930852642174E-02  -5.6201673215324583E-03   1.2159212949806144E-02
atom   2.7830976318497964E+01   2.2015152245141028E+01   2.4038922703093959E+01  O   0.0000000000000000E+00   0.0000000000000000E+00  -1.8437719563213082E-02  -1.2001577180370192E-02  -2.9089922814626083E-02
atom   2.6856255579199726E+01   2.3569074044142472E+01   2.4296870320221164E+01  H   0.0000000000000000E+00   0.0000000000000000E+00  -3.0985497940034120E-03  -9.5094955932097450E-04   3.5815933231476606E-03
atom   2.6941104282562449E+01   2.1058194931491112E+01   2.2608211047951077E+01  H   0.0000000000000000E+00   0.0000000000000000E+00   1.8912803491315553E-02   7.4407460612150164E-03   2.3191721719621437E-02
atom   3.5230198991476364E+01   5.9576579659449056E+00   6.2724734929614812E+00  O   0.0000000000000000E+00   0.0000000000000000E+00   2.1346869712741776E-02  -4.0678904719289012E-02   3.3573879738530078E-02
atom   3.4955432811767253E+01   4.1170836098590344E+00   5.9268236860110317E+00  H   0.0000000000000000E+00   0.0000000000000000E+00   2.4596830753302449E-04   2.9837031325591155E-02  -1.0148028881857894E-02
atom   3.4443694975005009E+01   7.0811757409398162E+00   5.1366724981033682E+00  H   0.0000000000000000E+00   0.0000000000000000E+00  -1.9713079803084548E-02   9.9925420170461493E-03  -3.3024523410372861E-02
atom   1.1248856270313906E+01   1.8720547013433528E+01   2.5842099379011724E+01  O   0.0000000000000000E+00   0.0000000000000000E+00  -1.1753428130170518E-02   1.4988258978915711E-02   1.0576261890491183E-02
atom   1.1093350706845792E+01   1.7378728075577563E+01   2.4563321704945963E+01  H   0.0000000000000000E+00   0.0000000000000000E+00   6.5219878180686952E-03  -9.9935130337086737E-03   9.1315499567507005E-03
atom   1.0620276666760642E+01   1.8087923395956068E+01   2.7502790704516361E+01  H   0.0000000000000000E+00   0.0000000000000000E+00   5.8602949747872789E-03  -4.0311292414847979E-03  -1.5623719620943863E-02
atom   3.8829371384007239E+01   2.8258240470072391E+01   1.4155749514856602E+01  O   0.0000000000000000E+00   0.0000000000000000E+00  -2.0812134689646010E-02  -1.6926982786908691E-02   6.4013138176671428E-03
atom   3.7436265278907086E+01   2.6979084850780069E+01   1.4620697732570715E+01  H   0.0000000000000000E+00   0.0000000000000000E+00   2.0447353791232154E-02   1.9438833562403390E-02  -1.0363131064049598E-02
atom   3.8812174876198760E+01   2.8048669841944868E+01   1.2323867898981607E+01  H   0.0000000000000000E+00   0.0000000000000000E+00   4.3992269313434026E-03   5.3457552190847406E-03  -5.6009584076509994E-03
atom   1.0617026337812225E+01   2.0665320868481995E+01   4.0269213539873327E+01  O   0.0000000000000000E+00   0.0000000000000000E+00   1.0734179143725944E-02  -3.9062699944098968E-03   6.3064219619848065E-03
atom   9.6774734018453934E+00   1.9278261887006789E+01   3.9547527129757000E+01  H   0.0000000000000000E+00   0.0000000000000000E+00  -3.0000773900879943E-03  -1.1539510295934323E-02  -6.0034870660697730E-03
atom   9.4924692134442719E+00   2.2077324234910151E+01   4.0053217842894277E+01  H   0.0000000000000000E+00   0.0000000000000000E+00  -4.0711029862455662E-03   1.3694237396381891E-02   2.9397497751480549E-03
atom   1.3983006525555584E+01   3.1351911122079272E+01   3.1452979966200569E+00  O   0.0000000000000000E+00   0.0000000000000000E+00  -4.9320471661474701E-03  -1.2301561847613520E-02  -1.0871145447099351E-02
atom   1.4141384472745550E+01   2.9790241445933347E+01   2.0856926491625738E+00  H   0.0000000000000000E+00   0.0000000000000000E+00  -3.2364604287299418E-03   2.4174929639706483E-02   1.2956617224931924E-02
atom   1.2210556796557151E+01   3.1907490605122462E+01   3.0049858312596567E+00  H   0.0000000000000000E+00   0.0000000000000000E+00   9.8427795243830468E-03  -8.1530824972338711E-03   2.8768266376693886E-04
atom   3.1145744928042440E+01   1.2976648843742614E+01   1.5484831698577498E+01  O   0.0000000000000000E+00   0.0000000000000000E+00   1.4126318898921750E-02   4.2155251462964553E-02   2.5987133987938314E-02
atom   3.1827180171530134E+01   1.2580259890126491E+01   1.3827409599282600E+01  H   0.0000000000000000E+00   0.0000000000000000E+00   1.4716259598474266E-03   4.6534643301778698E-03  -7.9669895840396403E-03
atom   3.1486840495012842E+01   1.4948332398922151E+01   1.5859772260586345E+01  H   0.0000000000000000E+00   0.0000000000000000E+00  -3.0922583020682646E-03  -4.2895923698286431E-02  -1.6216914214891191E-02
atom   7.2263663267744978E+00   1.4089281796212603E+01   4.1727893141781628E+01  O   0.0000000000000000E+00   0.0000000000000000E+00   2.2023008062043710E-03   2.1205156666676017E-03   1.8070271356867919E-02
atom   7.5582211329555058E+00   1.5519842273264857E+01   8.3635879797197077E-01  H   0.0000000000000000E+00   0.0000000000000000E+00  -7.8698971712468473E-03   1.1064453070527046E-03  -2.4875169380704871E-03
atom   8.2760147072382590E+00   1.2803417649148843E+01   5.7828267946774048E-01  H   0.0000000000000000E+00   0.0000000000000000E+00   2.5888879535085592E-03  -4.6169650193799731E-03  -9.4959101389198771E-03
atom   3.4405900452349009E+01   3.5290856273287595E+01   4.1845245134628513E+01  O   0.0000000000000000E+00   0.0000000000000000E+00  -3.8486220326917640E-02  -3.4676660748040100E-02  -1.1511307176071003E-03
atom   3.6000073417979088E+01   3.5196747911874141E+01   6.0304754043808451E-01  H   0.0000000000000000E+00   0.0000000000000000E+00   3.2335026156892731E-02   5.4337366384084058E-03   1.3661776664545806E-02
atom   3.3610514723053491E+01   3.3709533445360549E+01   5.8080735358116131E-01  H   0.0000000000000000E+00   0.0000000000000000E+00   3.2790899191057722E-03   2.4892126366977938E-02  -1.2568259127435859E-02
atom   8.9727945269242735E+00   4.1836678624693498E+01   2.4126039077816039E+01  O   0.0000000000000000E+00   0.0000000000000000E+00   2.5030500441386564E-03   1.8911265768599701E-03   1.8629970636059978E-02
atom   9.2063835741996805E+00   4.1187746670689990E+01   2.2405254461288362E+01  H   0.0000000000000000E+00   0.0000000000000000E+00  -1.3943686465236244E-02   7.6534981561448279E-03  -7.9133428372063757E-04
atom   7.3869174590171847E+00   4.2776439430534950E+01   2.4369624776333957E+01  H   0.0000000000000000E+00   0.0000000000000000E+00   4.3761635016959467E-03  -8.4206934819973968E-03  -1.5046124569989760E-02
atom   2.8480475190341323E+01   2.9562907392157513E+01   3.9904496396242912E+01  O   0.0000000000000000E+00   0.0000000000000000E+00  -1.9496959144371200E-02  -1.3664552111707922E-04  -2.5130941472000179E-02
atom   2.9338977772472365E+01   2.9289841965967916E+01   4.1459741003537317E+01  H   0.0000000000000000E+00   0.0000000000000000E+00   1.2492703937165350E-02  -6.4115391428000825E-03   2.0907213938997617E-02
atom   2.7514636163867245E+01   2.8023158539152071E+01   3.9517102539018921E+01  H   0.0000000000000000E+00   0.0000000000000000E+00   8.5278242974820683E-03   8.0064493508360517E-03   7.2069642279394847E-03
atom   6.7747595755579537E+00   3.8246106962855779E+00   2.7079681023382442E+01  O   0.0000000000000000E+00   0.0000000000000000E+00   4.0656542257231816E-03  -8.3118164064432294E-03  -1.0982546547896736E-02
atom   8.6592322697087685E+00   3.8139337436352587E+00   2.7380903368950754E+01  H   0.0000000000000000E+00   0.0000000000000000E+00  -1.4618114275274300E-02  -1.4932916804983331E-03  -1.0118792485305327E-02
atom   6.2503605737059535E+00   3.2914244679160589E+00   2.5346613186991558E+01  H   0.0000000000000000E+00   0.0000000000000000E+00   1.1059418105611842E-02   8.9558978751449244E-03   2.2280277965859536E-02
atom   1.7628855153566622E+01   2.0690454226048232E+01   3.2966366899667719E+01  O   0.0000000000000000E+00   0.0000000000000000E+00  -8.9153672865265095E-03   1.8090993896752811E-02   1.5716693389517464E-02
atom   1.7356999152102016E+01   2.0720500871559750E+01   3.1175662416226441E+01  H   0.0000000000000000E+00   0.0000000000000000E+00  -1.3611446885093819E-02  -6.5722791719422264E-03  -1.7378628383666835E-02
atom   1.9291303924374766E+01   1.9955728705615595E+01   3.3009263682882278E+01  H   0.0000000000000000E+00   0.0000000000000000E+00   1.9258513826639824E-02  -1.4882587251901180E-02   3.6679771852255049E-03
atom   3.1969476549329972E+01   3.0644019712732387E+01   2.3311661840871611E+00  O   0.0000000000000000E+00   0.0000000000000000E+00  -6.7574382982373239E-03   6.2631963118609671E-03   1.1402953285180236E-02
atom   3.3336504433797487E+01   2.9421933822650626E+01   2.1627159966093688E+00  H   0.0000000000000000E+00   0.0000000000000000E+00  -2.1024080820553357E-03   1.4547272197757966E-03   9.0901540214721951E-03
atom   3.1420322135138274E+01   3.0871920684348073E+01   4.1613848409652894E+00  H   0.0000000000000000E+00   0.0000000000000000E+00   9.3615211499172551E-03  -1.0558471433216593E-02  -2.7201690035884258E-02
atom   2.5851110249163405E+01   3.2370662480271747E+01   2.1599853183489003E+01  O   0.0000000000000000E+00   0.0000000000000000E+00   1.0735288972922016E-02   1.1507124288644919E-02   2.5927032643165383E-03
atom   2.6243228421719405E+01   3.2447385361263436E+01   1.9782125616348679E+01  H   0.0000000000000000E+00   0.0000000000000000E+00   3.0082067547570089E-03   1.1046938331893770E-03  -1.9603060699773479E-03
atom   2.6638937073927725E+01   3.3955008870011270E+01   2.2309256373742123E+01  H   0.0000000000000000E+00   0.0000000000000000E+00  -5.6351093648261278E-03  -1.4692907240889175E-02  -7.1762604277607550E-03
atom   2.5183092061218602E+01   3.8952389628200869E+01   3.6452155724230614E+01  O   0.0000000000000000E+00   0.0000000000000000E+00   5.7276387393466405E-03   2.0269528495257118E-02   8.1417925545206240E-03
atom   2.6229433420949967E+01   4.0403132380351423E+01   3.7108646582765324E+01  H   0.0000000000000000E+00   0.0000000000000000E+00  -1.0051992579892165E-02  -1.5886695603326246E-02  -1.8385315509115720E-03
atom   2.6398941855062127E+01   3.7854647717657350E+01   3.5649400063017154E+01  H   0.0000000000000000E+00   0.0000000000000000E+00   6.0893511352824170E-03  -1.2871375358361314E-02   6.5659359848800939E-04
atom   2.4760738270537807E+01   1.8415337345725003E+01   9.1928940531132550E+00  O   0.0000000000000000E+00   0.0000000000000000E+00   3.8666760488647825E-02   1.6754047109947075E-03  -1.3040876008593171E-02
atom   2.5055913492481164E+01   1.6590485511064024E+01   9.2194636025404275E+00  H   0.0000000000000000E+00   0.0000000000000000E+00  -7.4454985083129309E-03   8.6684318126737541E-04   8.2045939361661945E-03
atom   2.3237996952727567E+01   1.8967931061478374E+01   9.9905663510294644E+00  H   0.0000000000000000E+00   0.0000000000000000E+00  -2.7405337596411672E-02  -5.1016410125050314E-03   4.5572310781383813E-03
atom   2.5626988729813331E+01   1.9134475102350954E+00   3.2816133672110119E+01  O   0.0000000000000000E+00   0.0000000000000000E+00   4.6696946415580491E-03  -7.3545208449986021E-03  -8.1979766809417258E-03
atom   2.6705833379028849E+01   2.4444870097177551E+00   3.1348950302604194E+01  H   0.0000000000000000E+00   0.0000000000000000E+00  -9.9347988530381123E-03  -3.7883715036155056E-03   1.7231512483701274E-02
atom   2.5636248387864047E+01   2.4643563787902226E-02   3.2902872101605645E+01  H   0.0000000000000000E+00   0.0000000000000000E+00  -1.2796812044637547E-03   1.2894887726334549E-02  -7.3511896035514460E-03
atom   4.8133372332795217E+00   1.4626115196018425E+01   2.1991782383431723E+01  O   0.0000000000000000E+00   0.0000000000000000E+00  -2.3348428173350203E-02  -1.5003294120708806E-02  -1.8023244128341019E-02
atom   5.5141610668897281E+00   1.5347801606134743E+01   2.3497327193433485E+01  H   0.0000000000000000E+00   0.0000000000000000E+00   5.2866009071709586E-04   9.0687436043611423E-04   1.2136276204321297E-02
atom   3.1632850659025458E+00   1.3788607471222793E+01   2.2463458026178600E+01  H   0.0000000000000000E+00   0.0000000000000000E+00   1.9505087337681293E-02   9.9067868227164201E-03   6.6504499558086060E-03
atom   2.2299181009952523E+01   9.1074937554075175E-01   4.0301716829357481E+01  O   0.0000000000000000E+00   0.0000000000000000E+00  -1.8505213537248679E-02   2.9693469124320152E-02  -2.9121031688174683E-02
atom   2.2998379679088529E+01   4.4334518627028551E+01   4.1462386620123247E+01  H   0.0000000000000000E+00   0.0000000000000000E+00   1.4407763407182438E-02  -2.9822952277251836E-02   2.4092676211612960E-02
atom   2.0444603783222608E+01   7.1219018158905745E-01   4.0454406700887724E+01  H   0.0000000000000000E+00   0.0000000000000000E+00   3.7988803773269571E-03  -3.2189102043927013E-03  -7.8316738968492396E-04
atom   3.2589052082222261E+00   3.9008514494345043E+01   2.9242472582372038E+01  O   0.0000000000000000E+00   0.0000000000000000E+00  -5.7702517558584881E-04   1.5327088534860700E-03   8.8007307547924871E-04
atom   1.4286714335350355E+00   3.8886249213552858E+01   2.8786103721300844E+01  H   0.0000000000000000E+00   0.0000000000000000E+00   9.1322678453799652E-03   3.6929396048884723E-03  -3.6111109226021716E-03
atom   3.8021636768795695E+00   3.7336862757270147E+01   2.9817138299356518E+01  H   0.0000000000000000E+00   0.0000000000000000E+00  -3.4774525025701212E-03  -1.5112370503056853E-03   7.5889319787923303E-03
atom   4.0625367100620373E+01   4.4396123698957837E+01   2.6116487613494282E+01  O   0.0000000000000000E+00   0.0000000000000000E+00   1.1196463054623990E-02  -3.3492674453981450E-02   3.2324362939029273E-02
atom   4.0619131004382126E+01   4.2464445646009658E+01   2.6206816522642114E+01  H   0.0000000000000000E+00   0.0000000000000000E+00   1.7426490278531158E-03   2.7513229663789003E-02   5.9778725707021552E-03
atom   4.0172777691814773E+01   1.5195724794383741E-01   2.4435009300528840E+01  H   0.0000000000000000E+00   0.0000000000000000E+00  -8.7737019574145904E-03   1.1475234327529010E-02  -3.4210837135970715E-02
atom   1.2784957951883042E+01   4.3024182526545033E+01   2.7778312774678600E+01  O   0.0000000000000000E+00   0.0000000000000000E+00   8.9212225268392072E-03  -7.3519766824863978E-03  -4.8510783290106982E-02
atom   1.1338580467099250E+01   4.2646993190438153E+01   2.6497078456640203E+01  H   0.0000000000000000E+00   0.0000000000000000E+00   3.0332445245910132E-02   2.1605612933534276E-03   1.9952684101359135E-02
atom   1.4459519867202433E+01   4.2777384293601351E+01   2.6754648128540836E+01  H   0.0000000000000000E+00   0.0000000000000000E+00  -3.4510449226830144E-02   4.8894065310685474E-03   1.9790901422494352E-02
atom   6.4074067383341138E-01   1.9514990356451563E+00   3.0630476426913642E+01  O   0.0000000000000000E+00   0.0000000000000000E+00  -4.7461523936231105E-02   3.2101986859864735E-04  -1.8079255722235101E-02
atom   4.2311947674144371E+01   3.1849006058101224E+00   3.1498616612321957E+01  H   0.0000000000000000E+00   0.0000000000000000E+00   1.2739460801868926E-02  -1.5151586765644137E-02  -1.0111455769318401E-02
atom   4.2460291175569168E+01   1.4020573830812910E+00   2.9056901476131081E+01  H   0.0000000000000000E+00   0.0000000000000000E+00   2.4987955870890647E-02   1.0966451907889644E-02   2.9839277614436031E-02
atom   3.7655851455538446E+01   2.0036986929325991E+01   1.1805478226231914E+01  O   0.0000000000000000E+00   0.0000000000000000E+00  -1.2610404792060136E-03   2.0426356923547314E-03   1.5696938593158311E-02
atom   3.7135798823791880E+01   2.0300603724851591E+01   1.3601152689402458E+01  H   0.0000000000000000E+00   0.0000000000000000E+00   1.3049805905525941E-03   2.7692458328010677E-03  -1.1388824031126264E-02
atom   3.8412119853885002E+01   1.8347647355648103E+01   1.1900077916439882E+01  H   0.0000000000000000E+00   0.0000000000000000E+00  -1.8845809505712819E-03   1.2111241935690853E-04  -4.6358675207079474E-03
atom   2.6579788645971089E+01   1.8147600947229893E+01   2.0506646615664202E+01  O   0.0000000000000000E+00   0.0000000000000000E+00   1.8592493940442604E-03   1.6270072360036029E-02  -7.2236076453378898E-03
atom   2.8134277362812366E+01   1.7920247996192725E+01   1.9554602589959565E+01  H   0.0000000000000000E+00   0.0000000000000000E+00   1.0269483441383604E-03  -1.5006516505085335E-03  -7.7010232714080798E-04
atom   2.6448452679741489E+01   1.6690848865977035E+01   2.1588892771918761E+01  H   0.0000000000000000E+00   0.0000000000000000E+00  -1.5762673361523066E-03  -1.5195109387307284E-02   7.8856109410528133E-03
atom   3.6133299110341476E+01   1.7448024332867341E+01   2.7207993427799558E+01  O   0.0000000000000000E+00   0.0000000000000000E+00   8.7164585373981519E-03  -1.4532891537410796E-02  -1.2000206238699641E-02
atom   3.6420726455140368E+01   1.7683049572003675E+01   2.8968840238342601E+01  H   0.0000000000000000E+00   0.0000000000000000E+00   5.7755904844309144E-03   4.5619698715998825E-03   1.6850605064042037E-02
atom   3.4650431013933336E+01   1.8439544737486170E+01   2.6852157996993316E+01  H   0.0000000000000000E+00   0.0000000000000000E+00  -1.3025988035050224E-02   1.1274153115395672E-02  -5.9712074412936397E-03
atom   1.7526753250611435E+01   6.3876840447248746E+00   4.1424970042693786E+01  O   0.0000000000000000E+00   0.0000000000000000E+00   1.8907107301099613E-02  -4.1064967057727244E-03  -3.3687581540663000E-03
atom   1.8335480446404524E+01   8.0548949253876749E+00   4.1508873882990116E+01  H   0.0000000000000000E+00   0.0000000000000000E+00  -7.0216752566484436E-03  -5.6250114267942608E-04   6.3295976007849853E-03
atom   1.8867570633617021E+01   5.5281232159594662E+00   4.0402061287009154E+01  H   0.0000000000000000E+00   0.0000000000000000E+00  -1.9437445999878320E-02   6.3663851202649738E-03   6.1274849201824553E-03
atom   1.7123126645906687E+01   4.2976561427998462E+01   2.4385687448462761E+01  O   0.0000000000000000E+00   0.0000000000000000E+00   3.4467959980960423E-02  -1.6258038791019530E-02   1.8840582068468465E-02