Carbon chain, first structure from input.data

12 atoms

2 atom types

  -12.94 12.67 xlo xhi
   -0.36  1.20 ylo yhi
   -0.67  1.17 zlo zhi

Atoms

1  2  -2.35997196E-03   1.172907331840007 -1.7250595988097372E-01 -6.6741810230359422E-01
2  2  -8.49071586E-03  -1.159581745360834 -3.5063784106789647E-01 -4.6759951235815161E-01
3  2  -1.05341133E-02   3.725909424041168 -8.3808446129817402E-02 -2.2980808620118351E-01
4  2  -7.15563490E-03  -3.691531520409492 -3.3414993292840278E-01 -2.1088572536199013E-01
5  2   8.14623403E-04   6.077591424894964 -1.6674672212588620E-01 -1.4499820679122288E-01
6  2   8.34327483E-04  -6.068029910770012 -2.5620260955245030E-03 -7.0543207699589230E-02
7  2  -2.83459938E-02   8.591666758793101 -8.0658783933167305E-02  4.0220650606187225E-01
8  2  -3.24586443E-02  -8.608984063662383  0.11721101618520001     9.8323591084281514E-02
9  2  -6.06473430E-02  10.870494591100982  5.1580223738887498E-01  4.3585444122535055E-01
10 2  -5.61417786E-02 -10.887890663537627  4.1179249277052421E-01  6.9490967680382398E-01
11 1   1.01543794E-01  12.661796981509699  1.1948282077976258      1.1689054257962741
12 1   1.02941451E-01 -12.930485451086453  5.2506382642642058E-01  7.2809053422821779E-01
