Generated by RuNNerUC, original comment lines: 4.9327

12 atoms
2 atom types

-10.0 3.0 xlo xhi
-10.0 3.0 ylo yhi
-10.0 3.0 zlo zhi

Masses

1 1.0079
2 15.9994

Atoms

    1  2 0.0     0.734968    -2.075503     2.093259
    2  1 0.0    -0.150954    -1.621777     2.189569
    3  1 0.0     1.110712    -2.268840    -1.933123
    4  2 0.0    -1.961861     1.605897    -0.329587
    5  1 0.0    -1.259205     2.302559    -0.474285
    6  1 0.0    -1.545266     0.790954     0.073297
    7  2 0.0    -1.676959    -0.790916     1.785121
    8  1 0.0    -2.374457    -0.580287    -2.462661
    9  1 0.0    -1.755449    -0.150063     1.021480
   10  2 0.0     0.333928    -0.201711    -0.547698
   11  1 0.0     0.900045     0.522343    -0.153673
   12  1 0.0    -0.615876     0.107266    -0.596754
