LAMMPS data file via BUILD_WATER.f

192 atoms
2 atom types

 0.0 12.4297 xlo xhi
 0.0 12.4297 ylo yhi
 0.0 12.4297 zlo zhi
 0.0 0.0 0.0 xy xz yz

Masses

1 1.00794
2 15.9994

Atoms # atomic

1 2 0.0     -3.794741    0.390646   -1.635401   
2 1 0.0     -3.435650   -0.375382   -2.168557    
3 1 0.0     -3.106169    1.114124   -1.585941    
4 2 0.0     -3.003668   -2.364819   -2.289898   
5 1 0.0     -2.317830   -1.875963   -1.750782    
6 1 0.0     -2.798712   -2.260888   -3.263135   
7 2 0.0      6.075351    4.008544   -5.790815   
8 1 0.0     -6.205197    4.510114    5.786675    
9 1 0.0      5.441794    3.252575   -5.955487    
10 2 0.0     6.103240    5.776012   -0.058948   
11 1 0.0     6.010132   -5.661856   -0.146578    
12 1 0.0     5.908676    5.504966    0.883749    
13 2 0.0     2.166976    5.503467   -4.667882   
14 1 0.0     2.674922    5.192959   -3.864405   
15 1 0.0     2.757475    6.079035   -5.233595    
16 2 0.0     4.774988    2.450228    1.842222   
17 1 0.0     4.192783    1.824449    1.323148    
18 1 0.0     4.204228    3.039896    2.413645    
19 2 0.0     1.355506    2.942982   -5.560638   
20 1 0.0     1.905078    2.614123   -4.792639   
21 1 0.0     1.725944    2.579433    6.014266   
22 2 0.0     0.947405    2.355128    1.994238   
23 1 0.0     1.157218    2.357572    2.971976   
24 1 0.0     1.133603    1.448487    1.615645   
25 2 0.0    -2.330565   -6.110189    1.527339   
26 1 0.0    -2.185133   -5.132725    1.680357   
27 1 0.0    -2.030866    5.807826    2.332571   
28 2 0.0    -2.523592    5.371919    5.555045   
29 1 0.0    -2.509043    6.020283   -6.113423   
30 1 0.0    -1.927007    4.597439    5.765441   
31 2 0.0    -4.130892   -4.908745    6.182171   
32 1 0.0    -4.253978   -3.927601    6.033153   
33 1 0.0    -3.359741   -5.234776    5.635334   
34 2 0.0    -5.538933    0.898599    3.965866   
35 1 0.0    -5.751574    1.510724    4.727500   
36 1 0.0    -4.797510    0.282054    4.230751   
37 2 0.0    -0.605425   -2.039399    5.095888   
38 1 0.0    -1.522326   -1.833004    4.754285   
39 1 0.0    -0.652720   -2.247456    6.072861   
40 2 0.0    -4.097046    5.349018   -3.292585   
41 1 0.0    -3.275603    5.847787   -3.569098   
42 1 0.0    -4.705970    5.962428   -2.789655   
43 2 0.0    -2.718307    2.719344    1.879195   
44 1 0.0    -2.212353    2.035477    2.404872   
45 1 0.0    -2.916150    3.507923    2.461434   
46 2 0.0     4.386850   -1.565990    4.918704   
47 1 0.0     5.094620   -0.869935    4.798000   
48 1 0.0     4.265515   -2.069785    4.063445   
49 2 0.0     3.140236    4.034519    3.809246   
50 1 0.0     3.936535    4.108791    4.409572   
51 1 0.0     2.427550    3.501521    4.265306   
52 2 0.0     4.672875   -4.982255    5.280302   
53 1 0.0     4.377622   -5.402692    6.138240   
54 1 0.0     4.989329   -5.693214    4.652294   
55 2 0.0     4.076013   -0.882966    2.172731   
56 1 0.0     3.411493   -0.487891    1.538437   
57 1 0.0     4.316558   -0.205711    2.868046   
58 2 0.0     3.234774   -3.387222    3.055379   
59 1 0.0     4.208207   -3.450363    3.275473   
60 1 0.0     2.889465   -2.488598    3.326002   
61 2 0.0     3.745781    3.073278   -3.335529   
62 1 0.0     3.899540    3.844611   -2.717950   
63 1 0.0     4.413996    3.103137   -4.078898   
64 2 0.0    -3.958390   -2.142739   -4.974206   
65 1 0.0    -3.840187   -3.129982   -5.080877   
66 1 0.0    -3.307129   -1.800314   -4.297002   
67 2 0.0     1.959230   -5.461768    5.475189   
68 1 0.0     1.292636   -5.027329    6.080925   
69 1 0.0     2.657618   -4.794931    5.215220   
70 2 0.0    -0.766238   -2.971061   -4.638981   
71 1 0.0    -0.452370   -3.598413   -3.926298   
72 1 0.0    -0.522286   -3.337656   -5.536809   
73 2 0.0    -4.950519   -2.242673    2.675689   
74 1 0.0    -4.784709   -2.755588    3.517963   
75 1 0.0    -4.504323   -2.705954    1.910000   
76 2 0.0    -1.349511    1.303624   -3.915337   
77 1 0.0    -0.684837    2.049089   -3.965246   
78 1 0.0    -1.618620    1.034535   -4.840092   
79 2 0.0     3.337952   -4.432246    0.029455   
80 1 0.0     3.392416   -4.268390   -0.955525   
81 1 0.0     2.586353   -5.063349    0.221305   
82 2 0.0     4.417234    0.979067   -1.092440   
83 1 0.0     3.589919    0.983174   -1.654165   
84 1 0.0     5.203482    0.732138   -1.658867   
85 2 0.0     5.330055    5.726609    2.620961   
86 1 0.0     5.711488   -5.934855    2.106780   
87 1 0.0     5.966813    5.461081    3.344864   
88 2 0.0     2.116223   -1.396683   -2.642355   
89 1 0.0     1.911292   -1.947660   -3.451323   
90 1 0.0     2.381669   -0.475014   -2.925312   
91 2 0.0     0.781184    5.113170   -2.305199   
92 1 0.0     1.486104    4.540284   -1.887001   
93 1 0.0     0.372984    4.628145   -3.078583   
94 2 0.0     3.610219    1.396693    6.201197   
95 1 0.0     2.844802    2.028833   -6.107898   
96 1 0.0     4.343201    1.853134    5.696817   
97 2 0.0    -0.843496    0.512104    0.656560   
98 1 0.0    -1.818219    0.724857    0.724771   
99 1 0.0    -0.343261    1.329160    0.369882   
100 2 0.0    -4.847814    4.160569    3.291604  
101 1 0.0    -4.498057    4.818115    2.624293  
102 1 0.0    -5.247568    3.379484    2.811914  
103 2 0.0    -1.719754    2.566734    5.522049  
104 1 0.0    -0.997134    3.237171    5.353720  
105 1 0.0    -2.316609    2.511908    4.721575  
106 2 0.0    -0.807995   -2.112292   -0.139391  
107 1 0.0    -0.466546   -2.070182   -1.078348  
108 1 0.0    -1.448248   -2.875406   -0.051458  
109 2 0.0     4.247172   -3.115969   -4.780345  
110 1 0.0     3.811744   -3.606340   -4.025402  
111 1 0.0     4.928383   -2.480777   -4.416365  
112 2 0.0    -5.951867   -3.597451   -1.619578  
113 1 0.0     5.709823   -3.058412   -1.965494  
114 1 0.0    -5.347925   -3.009816   -1.081118  
115 2 0.0     0.595002   -0.452489    2.782336  
116 1 0.0     0.237804   -0.927971    1.978392  
117 1 0.0    -0.034587    0.279048    3.044007  
118 2 0.0    -1.834110   -4.059495    3.302656  
119 1 0.0    -1.249596   -4.250641    2.514109  
120 1 0.0    -1.268322   -3.768892    4.074300  
121 2 0.0    -4.170694    0.754044   -4.328619  
122 1 0.0    -4.087407    1.413094   -3.581145  
123 1 0.0    -4.510826   -0.115317   -3.970121  
124 2 0.0     0.182583   -5.039086    1.169889  
125 1 0.0     0.949035   -5.029403    1.812119  
126 1 0.0    -0.442665   -5.782209    1.408286  
127 2 0.0     3.602528   -6.041928   -2.379357  
128 1 0.0     4.253297   -5.322776   -2.135798  
129 1 0.0     3.582286    5.697578   -1.655978  
130 2 0.0     1.717707   -2.865091   -5.785563  
131 1 0.0     1.714042   -1.950501   -6.189931  
132 1 0.0     1.774623   -2.789167   -4.790075  
133 2 0.0    -1.476218    4.680000   -0.478616  
134 1 0.0    -0.580178    4.255098   -0.607344  
135 1 0.0    -1.593036    5.419083   -1.142024  
136 2 0.0     1.381740   -4.484802   -2.040668  
137 1 0.0     2.142694   -4.280698   -2.656535  
138 1 0.0     1.718949   -5.002554   -1.254397  
139 2 0.0     2.704826    3.791104   -0.562929  
140 1 0.0     3.703487    3.800791   -0.512099  
141 1 0.0     2.349815    3.042645   -0.002771  
142 2 0.0     6.014918   -0.964491   -3.000558  
143 1 0.0     5.731802   -0.835911   -2.050131  
144 1 0.0    -5.742691   -0.265705   -3.245600  
145 2 0.0    -5.931363    2.777131   -1.265738  
146 1 0.0     5.788177    2.697196   -0.566210  
147 1 0.0    -5.049959    2.506825   -0.878359  
148 2 0.0    -2.420814   -5.158278   -1.970258  
149 1 0.0    -3.403038   -5.097548   -2.147872  
150 1 0.0    -2.034610   -5.920352   -2.489960  
151 2 0.0     0.442047    4.415938    3.876759  
152 1 0.0     1.191080    5.066594    3.751879  
153 1 0.0    -0.208196    4.780184    4.543475  
154 2 0.0    -2.973769    0.074092    3.090626  
155 1 0.0    -3.385548    0.683059    3.768563  
156 1 0.0    -3.201234   -0.874078    3.312513  
157 2 0.0    -4.356744   -5.170292    3.328145  
158 1 0.0    -3.653070   -5.821489    3.043917  
159 1 0.0    -4.128699   -4.806153    4.231139  
160 2 0.0    -4.826398   -0.041014    0.911393  
161 1 0.0    -5.671956   -0.145830    1.434886  
162 1 0.0    -4.774145    0.888017    0.545099  
163 2 0.0    -1.600772   -5.623119   -4.757105  
164 1 0.0    -1.239681    5.932261   -4.432688  
165 1 0.0    -2.395821   -5.366337   -4.207595  
166 2 0.0    -3.680185   -3.740419    0.790486  
167 1 0.0    -3.324122   -2.822855    0.613580  
168 1 0.0    -3.547388   -3.969282    1.754844  
169 2 0.0     1.791691   -1.987132    0.713697  
170 1 0.0     2.063709   -1.884042    1.670451  
171 1 0.0     2.400633   -1.445851    0.133865  
172 2 0.0     1.826719    1.296503   -2.288460  
173 1 0.0     2.482389    1.724229   -2.910672  
174 1 0.0     2.319926    0.789569   -1.581521  
175 2 0.0     0.409718   -0.457683   -5.286585  
176 1 0.0     0.933393   -0.717580   -4.475278  
177 1 0.0     0.020041   -1.276466   -5.708186  
178 2 0.0     5.768274   -5.849868   -4.764343  
179 1 0.0     5.136403   -5.866530   -5.539237  
180 1 0.0    -5.797067    6.152615   -5.029809  
181 2 0.0     2.605976    5.984687    1.769248  
182 1 0.0     3.415533    5.668058    2.263581  
183 1 0.0     1.856519    5.337264    1.907659  
184 2 0.0    -1.704588    4.094343   -3.239199  
185 1 0.0    -2.409004    3.991931   -2.536839  
186 1 0.0    -2.138654    4.194467   -4.134499  
187 2 0.0     5.790130   -4.019339    1.399085  
188 1 0.0    -6.107542   -3.182761    1.268215  
189 1 0.0    -6.018584   -4.791802    1.532225  
190 2 0.0    -6.211620   -0.391770   -5.898654  
191 1 0.0     5.502519   -0.922295   -5.444150  
192 1 0.0    -6.171755   -0.645281    5.564496  