LAMMPS data file via BUILD_WATER.f

36 atoms
2 atom types

 0.0 7.1142 xlo xhi
 0.0 7.1142 ylo yhi
 0.0 7.1142 zlo zhi
 0.0 0.0 0.0 xy xz yz

Masses

1 1.00794
2 15.9994

Atoms

  1  2 0.0    1.631528    2.726062   -2.372347
  2  1 0.0    1.652572    2.938291   -3.349341
  3  1 0.0    1.102809    3.425001   -1.890745
  4  2 0.0   -1.884480   -0.499442    2.936880
  5  1 0.0   -1.266204   -1.109911    2.441841
  6  1 0.0   -2.592647   -1.039484    3.391691
  7  2 0.0    1.752420   -2.831129    2.449287
  8  1 0.0    2.542977   -3.288541    2.856465
  9  1 0.0    1.369704   -2.180247    3.104939
  10 2 0.0    0.206303    1.914000    1.906374
  11 1 0.0    0.177735    2.909365    1.998210
  12 1 0.0    0.282499    1.670532    0.939463
  13 2 0.0   -2.187151    3.488816   -3.087347
  14 1 0.0   -2.557069    2.899497   -2.369112
  15 1 0.0   -1.529721    2.972666    3.477880
  16 2 0.0    2.605224    0.354860    2.236784
  17 1 0.0    1.933516    0.136041    2.944546
  18 1 0.0    3.455816   -0.137709    2.420818
  19 2 0.0    1.562610   -0.009397   -2.041261
  20 1 0.0    2.479633    0.382021   -1.964704
  21 1 0.0    0.981408    0.605054   -2.574792
  22 2 0.0   -2.392964   -0.018842   -1.180095
  23 1 0.0   -3.055276    0.705573   -0.988877
  24 1 0.0   -1.467537    0.358749   -1.148323
  25 2 0.0    0.414068   -1.044234    0.226546
  26 1 0.0    0.018096   -0.245776    0.680055
  27 1 0.0    1.075862   -1.479977    0.836593
  28 2 0.0   -3.039053    3.474515   -0.474940
  29 1 0.0   -2.413375   -3.085503   -1.023943
  30 1 0.0   -2.529281    2.738021   -0.030295
  31 2 0.0   -0.187322    3.397555   -0.450980
  32 1 0.0    0.777592    3.234952   -0.244821
  33 1 0.0   -0.582288   -3.122347    0.249596
  34 2 0.0    0.034185   -2.149870   -2.664708
  35 1 0.0    0.004750   -1.165614   -2.490428
  36 1 0.0   -0.891333   -2.525168   -2.614019
