LAMMPS data file via BUILD_WATER.f

768 atoms
2 atom types

 0.0 19.7309 xlo xhi
 0.0 19.7309 ylo yhi
 0.0 19.7309 zlo zhi
 0.0 0.0 0.0 xy xz yz

Masses

1 1.00794
2 15.9994

Atoms # atomic

 1  2 0.0    8.146092    8.175816    9.503143
 2  1 0.0    8.695513    7.381915    9.763635
 3  1 0.0    7.445590    7.895530    8.846838
 4  2 0.0   -0.648941   -2.340617   -6.986901
 5  1 0.0   -1.261110   -3.117675   -7.133292
 6  1 0.0    0.047713   -2.587406   -6.313277
 7  2 0.0    1.457827    9.545324    1.240768
 8  1 0.0    1.750316    9.523045    2.196777
 9  1 0.0    1.719245    8.690652    0.792219
10  2 0.0    3.050964    6.967016    9.109649
11  1 0.0    3.119442    7.771068    9.700252
12  1 0.0    3.453080    6.177573    9.573420
13  2 0.0    5.411645    8.246592    1.238461
14  1 0.0    5.042420    8.839551    0.522869
15  1 0.0    4.748851    7.528694    1.451360
16  2 0.0   -0.312447    4.555391   -4.768318
17  1 0.0    0.555938    4.273801   -4.360133
18  1 0.0   -0.136922    5.192778   -5.518603
19  2 0.0   -2.746843    1.568327   -4.415606
20  1 0.0   -1.894341    2.090891   -4.428560
21  1 0.0   -2.702711    0.841498   -5.101005
22  2 0.0    7.830666   -8.864947   -0.826576
23  1 0.0    7.829396   -9.598479   -0.146923
24  1 0.0    8.691264   -8.358901   -0.769222
25  2 0.0    5.859306   -0.348997    3.613676
26  1 0.0    5.903731   -1.320701    3.381689
27  1 0.0    6.244709    0.190386    2.864989
28  2 0.0    0.216545    3.043623    7.834498
29  1 0.0    1.062774    2.566764    7.596799
30  1 0.0   -0.316154    3.210819    7.004873
31  2 0.0    7.317199    2.132506   -7.458793
32  1 0.0    8.268678    2.438977   -7.486438
33  1 0.0    6.908322    2.393222   -6.584238
34  2 0.0   -4.489069    9.737456   -5.378497
35  1 0.0   -3.915846    8.975169   -5.679051
36  1 0.0   -3.915952   -9.292732   -4.953524
37  2 0.0   -1.601990   -9.056354    5.986024
38  1 0.0   -1.063218   -8.271736    5.679266
39  1 0.0   -1.114855   -9.528398    6.720784
40  2 0.0   -5.639013    2.992153    3.547275
41  1 0.0   -5.043844    2.958397    2.744383
42  1 0.0   -6.022792    2.084292    3.716097
43  2 0.0   -0.552248   -4.307806    0.651525
44  1 0.0   -0.568731   -5.269545    0.378054
45  1 0.0   -1.322177   -4.121591    1.261880
46  2 0.0   -4.070723   -1.892089    8.339834
47  1 0.0   -4.406641   -2.708358    8.809796
48  1 0.0   -3.617193   -1.291351    8.998183
49  2 0.0    3.665194   -7.341317   -6.939547
50  1 0.0    4.309453   -8.050832   -6.654031
51  1 0.0    3.734576   -7.206284   -7.927956
52  2 0.0    2.374664   -6.849559   -2.935218
53  1 0.0    3.180464   -7.423653   -3.080486
54  1 0.0    1.766832   -6.922032   -3.725969
55  2 0.0   -4.552459   -6.461823   -6.117266
56  1 0.0   -3.664306   -6.284179   -6.541091
57  1 0.0   -4.455275   -7.179941   -5.428164
58  2 0.0   -2.121390   -1.693805    2.414748
59  1 0.0   -2.037666   -2.684947    2.311654
60  1 0.0   -1.412169   -1.241366    1.874097
61  2 0.0    1.988704   -9.356247    8.570822
62  1 0.0    1.230994   -8.762854    8.842412
63  1 0.0    1.658850    9.435420    8.475315
64  2 0.0   -3.409299    6.436516   -4.652317
65  1 0.0   -3.012075    5.959257   -3.868457
66  1 0.0   -3.026182    7.358389   -4.710395
67  2 0.0   -6.399535    5.640999   -7.697066
68  1 0.0   -5.903897    4.799105   -7.910508
69  1 0.0   -6.853846    5.978466   -8.521516
70  2 0.0   -7.254331   -3.300686   -3.255012
71  1 0.0   -7.802127   -2.465167   -3.297771
72  1 0.0   -6.508803   -3.177302   -2.600059
73  2 0.0    0.674346   -2.989249    5.966171
74  1 0.0    1.260206   -2.248103    6.293997
75  1 0.0    0.091964   -2.651540    5.226722
76  2 0.0   -9.629974    4.871715    6.989957
77  1 0.0   -9.595904    5.032189    7.976408
78  1 0.0   -8.777844    4.441000    6.692702
79  2 0.0    8.815069    4.809842   -7.012005
80  1 0.0    9.489868    5.023925   -7.718273
81  1 0.0    8.689892    5.604986   -6.418645
82  2 0.0   -8.236796    2.863286    9.359241
83  1 0.0   -8.261452    2.078400   -9.752465
84  1 0.0   -7.780286    3.629863    9.810858
85  2 0.0   -2.442904   -7.880466   -2.565553
86  1 0.0   -1.699702   -7.233648   -2.736657
87  1 0.0   -2.269993   -8.727442   -3.068279
88  2 0.0    0.784306    1.886938   -1.544831
89  1 0.0    0.370614    1.166947   -0.987631
90  1 0.0    1.524116    1.499243   -2.094717
91  2 0.0   -5.122708   -9.596547    9.805119
92  1 0.0   -4.654734    9.400495    9.312659
93  1 0.0   -4.466814   -9.113090   -9.346020
94  2 0.0    3.646996    5.375810   -8.345535
95  1 0.0    3.740407    6.115227   -7.678799
96  1 0.0    2.736378    4.969945   -8.267765
97  2 0.0   -4.525966   -4.803608   -1.527062
98  1 0.0   -3.564429   -4.755876   -1.256565
99  1 0.0   -4.995770   -5.487300   -0.968627
100  2 0.0   -7.888477    0.962955   -6.906463
101  1 0.0   -7.669991    1.057944   -7.877669
102  1 0.0   -8.651010    0.325305   -6.797175
103  2 0.0   -2.791735    4.221761    5.851349
104  1 0.0   -2.395400    3.700634    6.607223
105  1 0.0   -2.064496    4.699226    5.358246
106  2 0.0    6.380223    7.145988   -2.043507
107  1 0.0    6.604816    7.877112   -2.687724
108  1 0.0    6.396842    7.506680   -1.110970
109  2 0.0    6.324263    5.470732    6.300853
110  1 0.0    6.164663    6.117189    7.046924
111  1 0.0    5.835940    5.777449    5.483868
112  2 0.0   -7.303614    1.201642   -2.417690
113  1 0.0   -6.510124    0.623206   -2.606863
114  1 0.0   -7.036984    2.163521   -2.478502
115  2 0.0   -7.418771    9.022069    5.400086
116  1 0.0   -7.403966    8.757654    6.364381
117  1 0.0   -6.782475    8.446205    4.886756
118  2 0.0   -1.124527    5.892657    3.708795
119  1 0.0   -0.759406    5.034448    4.069578
120  1 0.0   -1.088008    6.595305    4.419395
121  2 0.0    7.862676    2.667454    8.141660
122  1 0.0    7.870703    3.485347    8.716975
123  1 0.0    7.562431    2.911500    7.219546
124  2 0.0   -3.432235    4.549089   -9.835016
125  1 0.0   -4.155623    5.024928    9.395551
126  1 0.0   -2.803984    4.120810    9.246318
127  2 0.0    9.308164   -1.464703   -7.164929
128  1 0.0    9.474730   -1.990145   -6.330564
129  1 0.0    8.669044   -1.963108   -7.750692
130  2 0.0   -5.772827   -0.029641    1.579903
131  1 0.0   -4.848102    0.019179    1.202410
132  1 0.0   -6.429013   -0.166263    0.837775
133  2 0.0    2.786796   -3.213622    2.212127
134  1 0.0    2.304196   -3.992386    2.612907
135  1 0.0    2.335610   -2.364571    2.486978
136  2 0.0    5.143558    9.806757   -3.222747
137  1 0.0    5.881948   -9.404640   -2.792696
138  1 0.0    4.790817    9.130821   -2.575688
139  2 0.0   -7.871195    3.421956    0.726159
140  1 0.0   -8.367353    4.277970    0.871309
141  1 0.0   -7.472189    3.419329   -0.190785
142  2 0.0   -8.083693   -3.677550    4.327839
143  1 0.0   -7.628094   -3.315249    3.514716
144  1 0.0   -9.058546   -3.795703    4.138893
145  2 0.0    8.708323    7.472737    2.766567
146  1 0.0    8.190471    8.123070    3.322351
147  1 0.0    9.597398    7.304380    3.192244
148  2 0.0    2.144425   -8.829829   -1.081773
149  1 0.0    1.901563   -8.884327   -2.050302
150  1 0.0    1.538740   -9.423827   -0.552328
151  2 0.0    0.628307   -5.429599    9.688035
152  1 0.0    1.422720   -6.036432    9.713742
153  1 0.0    0.776660   -4.715086    9.004322
154  2 0.0   -5.930370    8.612388   -2.524866
155  1 0.0   -6.547238    8.853755   -3.274009
156  1 0.0   -5.707887    9.433149   -1.998697
157  2 0.0   -9.270072    1.916333    2.981610
158  1 0.0   -9.537950    1.348799    2.203056
159  1 0.0    9.727661    2.563692    3.190076
160  2 0.0    1.707058    0.129196    7.489601
161  1 0.0    2.415723    0.775503    7.772587
162  1 0.0    2.104489   -0.554131    6.877136
163  2 0.0    9.247027   -0.305438   -4.153472
164  1 0.0    9.255133   -1.302845   -4.224973
165  1 0.0    9.363782   -0.038893   -3.196747
166  2 0.0   -8.621631   -9.299146    2.494840
167  1 0.0   -8.487351   -9.292756    3.485763
168  1 0.0   -9.572306   -9.069956    2.285821
169  2 0.0    5.102113   -7.126110   -2.308541
170  1 0.0    4.886138   -8.058325   -2.598937
171  1 0.0    6.046700   -7.089003   -1.982384
172  2 0.0    5.133104   -7.455012    9.613800
173  1 0.0    4.963233   -7.664664    8.650894
174  1 0.0    5.847991   -6.759138    9.682324
175  2 0.0   -7.357778   -5.085727    0.653667
176  1 0.0   -7.893148   -5.606131    1.318919
177  1 0.0   -6.401376   -5.374653    0.696294
178  2 0.0   -1.698588    7.899402    8.616415
179  1 0.0   -2.695834    7.931060    8.549340
180  1 0.0   -1.436120    7.480145    9.485515
181  2 0.0    4.116086   -4.920753    8.459567
182  1 0.0    4.811257   -5.167047    7.784232
183  1 0.0    3.991872   -3.928505    8.463386
184  2 0.0   -4.431477    8.026773    2.024374
185  1 0.0   -3.589613    7.584588    2.333790
186  1 0.0   -5.003937    8.243923    2.815029
187  2 0.0   -4.413204    5.329754    0.238133
188  1 0.0   -4.809559    5.499234    1.140451
189  1 0.0   -5.123696    4.993958   -0.380285
190  2 0.0   -5.358914    2.470083   -8.403967
191  1 0.0   -4.605309    2.199592   -7.804874
192  1 0.0   -5.021452    2.569208   -9.340073
193  2 0.0    6.618430    7.538342   -7.715023
194  1 0.0    6.701058    6.964786   -8.530012
195  1 0.0    5.907798    8.226326   -7.862267
196  2 0.0    3.936896    4.145693    2.651834
197  1 0.0    4.274548    3.479083    3.316380
198  1 0.0    3.290906    4.764322    3.099043
199  2 0.0    9.394972   -0.642165    7.293398
200  1 0.0   -9.582162   -0.228934    7.804420
201  1 0.0    9.020355   -1.409351    7.814059
202  2 0.0   -8.595830   -6.770640   -9.352237
203  1 0.0   -8.685624   -5.875901   -8.914768
204  1 0.0   -9.176349   -7.432984   -8.878637
205  2 0.0    0.876002    1.243773   -4.421983
206  1 0.0    0.502946    0.975305   -5.310102
207  1 0.0    1.671281    1.834274   -4.559241
208  2 0.0   -7.448560   -4.533663    8.886024
209  1 0.0   -8.209191   -4.690866    9.515888
210  1 0.0   -6.726844   -4.024900    9.355371
211  2 0.0   -8.116472    4.101557    4.482834
212  1 0.0   -8.326429    3.887364    3.528875
213  1 0.0   -7.621934    4.969513    4.528509
214  2 0.0    9.087291   -7.502163    5.326608
215  1 0.0    9.661746   -7.476452    6.144741
216  1 0.0    8.819388   -6.571329    5.078058
217  2 0.0    5.868089   -4.246555   -7.090597
218  1 0.0    5.297481   -4.329382   -6.273563
219  1 0.0    5.425287   -3.634421   -7.745745
220  2 0.0    9.421949   -4.498548    7.297052
221  1 0.0    8.838440   -5.178714    7.740776
222  1 0.0    8.864048   -3.914573    6.707375
223  2 0.0    6.698764    9.066894    7.181988
224  1 0.0    5.820211    8.871518    6.746129
225  1 0.0    7.180313    9.771181    6.660365
226  2 0.0   -3.712577   -5.929718    3.881319
227  1 0.0   -3.700617   -5.317478    3.090737
228  1 0.0   -4.337025   -6.690469    3.704339
229  2 0.0    7.273276    9.694908    3.594331
230  1 0.0    6.677032   -9.239315    3.693679
231  1 0.0    6.957844    9.136062    2.827394
232  2 0.0   -7.759655   -7.439841    5.636521
233  1 0.0   -8.279714   -8.193580    5.234755
234  1 0.0   -7.264863   -6.954711    4.915530
235  2 0.0   -4.015040    6.527266    4.848873
236  1 0.0   -3.082725    6.172318    4.779590
237  1 0.0   -4.549707    5.942806    5.459232
238  2 0.0   -6.227861    3.572288   -5.186352
239  1 0.0   -6.817031    3.475884   -4.384115
240  1 0.0   -6.193620    2.703891   -5.681039
241  2 0.0   -4.259415   -4.800757    9.795822
242  1 0.0   -4.013172   -4.586617    8.850567
243  1 0.0   -3.723027   -5.583753   -9.620066
244  2 0.0   -0.023555   -6.771664   -4.594676
245  1 0.0    0.813481   -7.315567   -4.535191
246  1 0.0   -0.582301   -6.929684   -3.780531
247  2 0.0    3.198847    0.966297   -2.637015
248  1 0.0    2.457974    1.158101   -3.280690
249  1 0.0    3.909862    1.663317   -2.729867
250  2 0.0    7.405683   -1.158627   -9.342166
251  1 0.0    6.457217   -0.890865   -9.172709
252  1 0.0    8.010818   -0.644752   -8.734100
253  2 0.0   -4.863641   -9.546506    6.927163
254  1 0.0   -4.442015    9.783831    6.113642
255  1 0.0   -4.230176   -9.613255    7.698050
256  2 0.0    3.554390   -2.760560   -7.525742
257  1 0.0    4.197761   -2.220737   -6.982912
258  1 0.0    3.062352   -2.158887   -8.154939
259  2 0.0    5.790796    4.342776   -2.657404
260  1 0.0    6.081752    3.764874   -1.894925
261  1 0.0    6.333443    4.123086   -3.468127
262  2 0.0    9.077585   -5.107375   -2.867577
263  1 0.0    8.790411   -4.250612   -2.439220
264  1 0.0    8.433046   -5.832960   -2.626547
265  2 0.0    8.430582    0.933430    0.349905
266  1 0.0    8.244280    0.794876   -0.622769
267  1 0.0    7.600787    1.255530    0.805636
268  2 0.0   -7.101550   -8.934833   -6.853252
269  1 0.0   -7.661523   -9.474065   -6.224237
270  1 0.0   -6.320736   -8.551801   -6.359678
271  2 0.0    7.462820   -4.360788   -0.135335
272  1 0.0    6.952387   -3.672086   -0.650260
273  1 0.0    7.158626   -4.357976    0.817271
274  2 0.0   -7.573806    7.473411    2.699432
275  1 0.0   -8.453263    7.644038    2.255088
276  1 0.0   -7.404956    8.179945    3.386672
277  2 0.0    9.110124    5.543813    9.611053
278  1 0.0    9.763755    4.869367    9.267705
279  1 0.0    9.116434    6.347230    9.015668
280  2 0.0    3.871859    3.027359    9.719076
281  1 0.0    3.959369    3.799889    9.090157
282  1 0.0    3.685563    2.193720    9.199134
283  2 0.0    7.750245   -6.674759   -4.620366
284  1 0.0    8.408725   -6.623014   -5.371183
285  1 0.0    7.615821   -5.763320   -4.231509
286  2 0.0    4.022740   -6.755903    0.447577
287  1 0.0    4.745458   -6.098102    0.235500
288  1 0.0    3.271331   -6.646856   -0.203186
289  2 0.0    1.337742    9.515378   -7.876257
290  1 0.0    2.105829    8.889188   -8.010152
291  1 0.0    1.537023   -9.343246   -8.322911
292  2 0.0   -8.366464   -0.945224   -9.047274
293  1 0.0   -8.934292   -0.185352   -8.730783
294  1 0.0   -7.444493   -0.851398   -8.671553
295  2 0.0    6.796349   -2.433627    7.273050
296  1 0.0    6.225920   -1.873691    6.672149
297  1 0.0    6.216506   -3.058280    7.796110
298  2 0.0    6.029855   -7.158037    2.307396
299  1 0.0    6.054712   -8.133167    2.087163
300  1 0.0    6.392533   -6.633077    1.537408
301  2 0.0   -2.801225    7.622347   -1.294480
302  1 0.0   -2.760764    8.480277   -0.782309
303  1 0.0   -2.327585    7.733102   -2.168207
304  2 0.0    2.660795   -3.983464   -2.992304
305  1 0.0    3.000453   -4.450746   -3.808564
306  1 0.0    3.102390   -3.089872   -2.911760
307  2 0.0   -9.637999    8.581355    7.280744
308  1 0.0    9.244006    8.082383    7.455329
309  1 0.0   -8.884242    7.931922    7.180310
310  2 0.0    3.180759    0.156765    3.844718
311  1 0.0    2.497145    0.469586    3.185314
312  1 0.0    3.287966   -0.834566    3.768764
313  2 0.0    4.433119   -8.866661    6.074526
314  1 0.0    4.600341   -9.602598    6.730600
315  1 0.0    4.423239   -9.242186    5.147766
316  2 0.0    6.110623    1.966616    5.081876
317  1 0.0    6.947708    2.095931    5.613446
318  1 0.0    5.354098    1.749905    5.698890
319  2 0.0   -3.929548   -2.356438   -5.030748
320  1 0.0   -4.457271   -2.834068   -5.733156
321  1 0.0   -4.529512   -1.732976   -4.529411
322  2 0.0   -2.090869   -7.272756    0.987889
323  1 0.0   -1.442905   -8.033841    1.017742
324  1 0.0   -1.653683   -6.479206    0.564634
325  2 0.0   -2.459980   -2.061770    6.125679
326  1 0.0   -1.953251   -2.838250    5.751105
327  1 0.0   -1.833155   -1.465248    6.626929
328  2 0.0   -6.788122    5.323385   -3.171212
329  1 0.0   -5.903059    5.712268   -2.915413
330  1 0.0   -7.466263    5.549748   -2.472009
331  2 0.0   -0.176237   -1.258054   -4.418823
332  1 0.0    0.462430   -1.475519   -3.680708
333  1 0.0    0.231696   -0.571986   -5.021236
334  2 0.0    6.873923    4.792593    3.511261
335  1 0.0    6.176717    5.465129    3.759454
336  1 0.0    7.761961    5.087394    3.864079
337  2 0.0    1.958748    7.192444   -3.148737
338  1 0.0    1.005709    6.912889   -3.032269
339  1 0.0    2.014095    8.190832   -3.161284
340  2 0.0   -2.812414    0.663610   -0.065130
341  1 0.0   -3.164274    0.466041    0.849835
342  1 0.0   -1.829416    0.839773   -0.013359
343  2 0.0    1.285095   -1.213281   -8.926999
344  1 0.0    1.918044   -0.440211   -8.968695
345  1 0.0    0.548660   -1.077225   -9.589685
346  2 0.0    9.284252   -8.944012   -3.233563
347  1 0.0    8.506420   -8.335960   -3.392464
348  1 0.0    9.027028   -9.648316   -2.571906
349  2 0.0    1.026062    6.687290    5.748419
350  1 0.0    0.051248    6.475281    5.817630
351  1 0.0    1.539612    6.103435    6.377211
352  2 0.0    4.317142    6.835462    3.324124
353  1 0.0    4.455392    6.944195    4.308534
354  1 0.0    5.107247    6.369333    2.926057
355  2 0.0   -4.869548    0.424979   -6.656699
356  1 0.0   -5.682750    0.349545   -6.079627
357  1 0.0   -5.021689    1.121826   -7.357597
358  2 0.0   -7.606322    2.295211    6.680292
359  1 0.0   -7.383543    1.888541    5.794296
360  1 0.0   -8.439520    2.841745    6.596133
361  2 0.0    6.568463   -1.532435    0.108478
362  1 0.0    5.980321   -0.934506    0.653061
363  1 0.0    6.149661   -1.686806   -0.786382
364  2 0.0   -1.112442   -1.769848   -1.416762
365  1 0.0   -1.162294   -1.505675   -2.379948
366  1 0.0   -0.154367   -1.827461   -1.136098
367  2 0.0   -1.345945   -6.303124    7.832518
368  1 0.0   -2.221823   -6.608063    8.206483
369  1 0.0   -0.886558   -5.714168    8.497419
370  2 0.0   -9.458086    3.113072   -4.583654
371  1 0.0    9.833051    3.642433   -3.858103
372  1 0.0   -8.813456    2.464393   -4.179096
373  2 0.0   -5.469477    7.055455    9.665181
374  1 0.0   -4.526603    7.295811   -9.834984
375  1 0.0   -5.509656    6.096837    9.383336
376  2 0.0   -5.635593   -3.416325    3.009528
377  1 0.0   -6.544023   -3.575720    2.623072
378  1 0.0   -5.507285   -4.000147    3.811207
379  2 0.0    0.090257    5.862392   -9.413984
380  1 0.0    0.292515    6.516051    9.587610
381  1 0.0   -0.583749    5.198827   -9.738635
382  2 0.0   -8.891406   -0.882347    3.231834
383  1 0.0   -8.341960   -0.123146    3.580722
384  1 0.0   -9.803671   -0.848753    3.640054
385  2 0.0   -2.336468    6.027634   -7.185886
386  1 0.0   -1.603688    6.681302   -6.996809
387  1 0.0   -2.958351    6.412196   -7.868069
388  2 0.0    2.253219   -5.270065    5.273186
389  1 0.0    1.598465   -5.325522    4.519381
390  1 0.0    2.078302   -4.442365    5.806400
391  2 0.0    0.749866    3.761148    4.025411
392  1 0.0    0.044131    4.388740    4.354145
393  1 0.0    1.589668    4.271455    3.840156
394  2 0.0    0.058719   -5.317676   -7.261317
395  1 0.0    0.046547   -4.860609   -6.371968
396  1 0.0   -0.776009   -5.091893   -7.763563
397  2 0.0   -0.780276    0.791576    4.351884
398  1 0.0    0.036013    0.272672    4.605679
399  1 0.0   -0.641438    1.758023    4.567994
400  2 0.0   -5.068889    0.039612    6.124301
401  1 0.0   -4.171327   -0.368663    6.290716
402  1 0.0   -4.978440    0.786194    5.465185
403  2 0.0   -9.317453   -6.539071   -0.860282
404  1 0.0   -8.877151   -6.810862   -1.716006
405  1 0.0   -9.584079   -7.355800   -0.348555
406  2 0.0    1.466844   -9.703353    4.410279
407  1 0.0    0.731342    9.366914    4.259747
408  1 0.0    2.347105    9.597884    4.208862
409  2 0.0   -2.566626   -0.128880   -9.534465
410  1 0.0   -1.895767   -0.859772   -9.659946
411  1 0.0   -3.183281   -0.103764    9.409558
412  2 0.0   -9.093310   -5.991537    2.927458
413  1 0.0   -9.489133   -6.623645    2.261303
414  1 0.0   -9.825515   -5.481953    3.379343
415  2 0.0    3.476298   -4.764137   -5.597214
416  1 0.0    3.113871   -4.033587   -6.175956
417  1 0.0    3.817811   -5.507048   -6.172933
418  2 0.0   -0.196336    5.026832    0.428892
419  1 0.0    0.461963    4.458281    0.922240
420  1 0.0   -0.770368    5.517359    1.084536
421  2 0.0   -9.664811   -3.225047    1.681090
422  1 0.0    9.163429   -3.051783    1.287054
423  1 0.0   -8.978787   -2.685812    1.192626
424  2 0.0    5.878143   -3.213972   -3.508662
425  1 0.0    6.871295   -3.101866   -3.475765
426  1 0.0    5.644436   -3.920831   -4.176294
427  2 0.0    6.936540    6.229052   -4.648912
428  1 0.0    6.960295    6.356998   -5.640409
429  1 0.0    5.990566    6.098064   -4.352307
430  2 0.0   -8.875361    8.433170   -7.622522
431  1 0.0   -9.176878    8.180155   -8.541799
432  1 0.0   -8.164252    9.133388   -7.685902
433  2 0.0   -8.960429    7.939382   -4.721064
434  1 0.0   -9.612114    8.028855   -3.967870
435  1 0.0   -8.998289    7.009056   -5.085839
436  2 0.0   -8.412653   -0.928094   -0.235733
437  1 0.0   -7.980981   -1.570696    0.397293
438  1 0.0   -8.162090    0.006746    0.015845
439  2 0.0   -5.446621    4.476118    6.490451
440  1 0.0   -6.065906    5.131853    6.058598
441  1 0.0   -4.883755    4.037863    5.789656
442  2 0.0   -4.526831   -5.290946    1.285536
443  1 0.0   -4.089361   -4.399626    1.166507
444  1 0.0   -4.197234   -5.920615    0.582057
445  2 0.0    3.000268    5.882226   -0.653164
446  1 0.0    3.320318    4.977029   -0.932781
447  1 0.0    3.221941    6.548703   -1.364971
448  2 0.0    4.724913    0.302536   -9.456871
449  1 0.0    3.863261   -0.143322   -9.699291
450  1 0.0    5.124623   -0.154407   -8.662242
451  2 0.0   -7.584899   -6.387555   -4.225738
452  1 0.0   -7.357361   -5.457301   -3.937895
453  1 0.0   -8.449105   -6.378816   -4.728801
454  2 0.0    9.740005    3.747920   -1.823561
455  1 0.0   -9.535142    3.466059   -2.667886
456  1 0.0   -9.519766    4.542080   -1.439647
457  2 0.0    4.384458   -2.258322    5.471334
458  1 0.0    4.482899   -1.528602    6.147958
459  1 0.0    3.961198   -1.890326    4.643428
460  2 0.0    6.002497    0.613883   -4.801514
461  1 0.0    6.454039    1.136452   -5.524723
462  1 0.0    5.192541    1.109626   -4.488127
463  2 0.0    5.978181    4.858329   -6.888922
464  1 0.0    6.128913    4.649246   -5.922711
465  1 0.0    5.109690    5.342866   -6.993552
466  2 0.0    9.669363    8.796950   -0.469741
467  1 0.0    9.222476    9.032155    0.393376
468  1 0.0   -9.296001    8.178794   -0.291122
469  2 0.0   -4.103366   -5.431198    7.023719
470  1 0.0   -4.927234   -4.993813    6.663254
471  1 0.0   -3.403288   -5.462497    6.310339
472  2 0.0    3.701686    3.371320   -5.982586
473  1 0.0    3.632450    4.027175   -6.734291
474  1 0.0    3.226921    2.527254   -6.231887
475  2 0.0    0.019939   -9.471047   -5.620556
476  1 0.0   -0.127643   -8.649392   -6.171103
477  1 0.0   -0.557286    9.519527   -5.965221
478  2 0.0   -3.900892    4.285350   -2.688832
479  1 0.0   -4.720367    4.056054   -2.163585
480  1 0.0   -3.148067    4.485134   -2.061664
481  2 0.0   -9.785483   -7.834236   -6.038113
482  1 0.0    9.560885   -8.071786   -6.930155
483  1 0.0    9.204597   -7.610043   -5.404875
484  2 0.0    0.636994   -6.718220    1.547091
485  1 0.0    0.208169   -6.988899    0.685208
486  1 0.0    0.641337   -5.720776    1.618404
487  2 0.0    4.636460    7.092764   -5.904051
488  1 0.0    4.792782    7.461356   -6.820405
489  1 0.0    5.021362    7.716505   -5.223759
490  2 0.0   -7.892644   -2.139954    6.923376
491  1 0.0   -8.749158   -1.629466    6.999453
492  1 0.0   -7.139822   -1.581757    7.272195
493  2 0.0   -6.920410   -5.015973   -6.734548
494  1 0.0   -7.324962   -5.487325   -7.518234
495  1 0.0   -7.638754   -4.547693   -6.220061
496  2 0.0    5.374210    1.682544   -0.747411
497  1 0.0    6.011735    1.805309   -1.507996
498  1 0.0    4.960070    0.774027   -0.802953
499  2 0.0   -0.867631    8.710880    3.343337
500  1 0.0    0.064041    8.357396    3.259459
501  1 0.0   -1.312564    8.693580    2.447940
502  2 0.0    5.942948   -9.295135   -6.406698
503  1 0.0    6.721824   -8.667986   -6.412700
504  1 0.0    6.153739    9.647998   -5.827853
505  2 0.0    8.162466   -9.289707   -8.450675
506  1 0.0    8.094324   -8.352756   -8.793427
507  1 0.0    8.802704   -9.806723   -9.018821
508  2 0.0    6.074197    5.588351    0.997491
509  1 0.0    6.214966    6.258138    1.726579
510  1 0.0    5.118959    5.612437    0.702633
511  2 0.0    1.154649   -0.659420    0.099565
512  1 0.0    1.551042   -0.486708   -0.802124
513  1 0.0    1.887545   -0.753874    0.773317
514  2 0.0    6.400963    5.211357    9.489401
515  1 0.0    5.802048    4.818291   -9.543744
516  1 0.0    7.353414    5.003441    9.712128
517  2 0.0    8.073922   -3.094983    4.038137
518  1 0.0    7.674007   -3.431133    3.185453
519  1 0.0    7.362565   -2.662556    4.592194
520  2 0.0   -2.672207    3.632735    1.537366
521  1 0.0   -3.140570    4.229505    0.885827
522  1 0.0   -3.224490    2.814389    1.696401
523  2 0.0   -2.401667    0.867477    6.631391
524  1 0.0   -3.070485    1.375616    6.088733
525  1 0.0   -1.653678    0.565082    6.040570
526  2 0.0   -4.148572   -9.294840   -0.222844
527  1 0.0   -4.647977   -8.467877    0.035470
528  1 0.0   -3.607990   -9.614517    0.555345
529  2 0.0    7.741721   -5.999161   -9.583093
530  1 0.0    8.453928   -6.332126   -8.965116
531  1 0.0    7.146408   -5.362277   -9.093215
532  2 0.0   -4.566492   -1.391229   -1.097981
533  1 0.0   -3.624199   -1.128435   -0.890562
534  1 0.0   -4.716045   -1.343816   -2.085597
535  2 0.0    1.767707    6.176714   -5.945167
536  1 0.0    1.827964    7.083915   -5.528808
537  1 0.0    2.256331    5.515562   -5.375847
538  2 0.0   -7.754320    6.448400   -0.388657
539  1 0.0   -8.162399    5.756174    0.206568
540  1 0.0   -7.229787    5.998933   -1.111737
541  2 0.0   -7.216562    6.599528    6.927787
542  1 0.0   -6.930965    5.674770    7.179297
543  1 0.0   -6.576311    7.262991    7.314951
544  2 0.0   -3.210799    1.376868    3.069266
545  1 0.0   -3.647001    0.745750    2.427846
546  1 0.0   -2.941075    2.209747    2.585984
547  2 0.0   -1.899788   -4.680197   -4.031667
548  1 0.0   -1.424792   -3.866773   -4.367407
549  1 0.0   -2.213668   -4.520376   -3.095753
550  2 0.0   -1.368197   -8.654252   -9.205426
551  1 0.0   -1.649366   -9.517834   -8.786893
552  1 0.0   -0.668153   -8.221071   -8.637718
553  2 0.0    6.409938   -5.096248    5.345428
554  1 0.0    5.779633   -4.710580    6.019205
555  1 0.0    7.217152   -5.457190    5.812468
556  2 0.0   -5.463623   -3.065327   -7.988372
557  1 0.0   -5.164973   -3.527312   -8.823464
558  1 0.0   -4.906521   -2.247841   -7.842249
559  2 0.0   -9.129716   -3.564718   -5.923817
560  1 0.0   -9.605475   -3.025646   -6.618839
561  1 0.0   -9.569057   -3.426383   -5.036211
562  2 0.0   -1.306045    3.483277   -2.187652
563  1 0.0   -1.317521    2.625198   -2.701041
564  1 0.0   -1.746921    4.200492   -2.727309
565  2 0.0    4.493734    0.432920    7.162944
566  1 0.0    4.387574    1.425177    7.227417
567  1 0.0    5.363592    0.163231    7.575998
568  2 0.0   -1.540145   -3.501814   -9.540307
569  1 0.0   -0.766366   -4.135098   -9.555037
570  1 0.0   -1.278382   -2.666914   -9.056136
571  2 0.0   -0.213936   -6.596434   -1.260748
572  1 0.0    0.417849   -7.240900   -1.691458
573  1 0.0   -0.641446   -6.028360   -1.963974
574  2 0.0   -7.547599   -8.677182   -0.265295
575  1 0.0   -7.891266   -9.330115    0.409665
576  1 0.0   -8.217426   -7.945645   -0.392512
577  2 0.0    3.857495    4.794498    7.546310
578  1 0.0    3.414581    5.446790    8.161406
579  1 0.0    4.442486    5.287792    6.902534
580  2 0.0   -0.562608   -5.179646    4.794169
581  1 0.0   -0.843278   -5.273528    3.838967
582  1 0.0   -1.251270   -5.597758    5.386560
583  2 0.0    4.360924   -3.275960   -0.124951
584  1 0.0    3.494483   -3.292817    0.374044
585  1 0.0    4.541590   -4.181087   -0.509795
586  2 0.0    9.744953   -7.960508    8.038522
587  1 0.0   -9.817657   -8.053313    7.057155
588  1 0.0   -9.201343   -8.316332    8.546317
589  2 0.0    1.419073    2.536121    1.317813
590  1 0.0    0.731593    2.694004    0.608980
591  1 0.0    2.331506    2.565517    0.909643
592  2 0.0    3.786552   -0.121799   -6.348594
593  1 0.0    3.154173   -0.896449   -6.352276
594  1 0.0    4.723702   -0.457018   -6.251749
595  2 0.0   -5.870062   -7.118455    8.550116
596  1 0.0   -6.010467   -8.108071    8.580882
597  1 0.0   -5.094312   -6.873625    9.131727
598  2 0.0    2.934218    3.728937   -3.063100
599  1 0.0    2.702521    3.094547   -2.325627
600  1 0.0    2.236746    3.678122   -3.777908
601  2 0.0   -0.404232    3.127205   -8.148191
602  1 0.0   -1.306196    2.697391   -8.106706
603  1 0.0    0.254690    2.482531   -8.535770
604  2 0.0   -1.148565    7.885646   -3.469412
605  1 0.0   -0.506952    8.603494   -3.199176
606  1 0.0   -1.398448    7.342824   -2.667599
607  2 0.0    5.713284    9.362029   -9.682151
608  1 0.0    5.957776   -9.740643   -8.943497
609  1 0.0    6.142050    9.665228    9.197687
610  2 0.0    1.491357    6.825538    2.163088
611  1 0.0    1.660452    7.541321    2.840630
612  1 0.0    1.444050    7.233930    1.251508
613  2 0.0    3.134732   -9.203705   -4.926177
614  1 0.0    2.415855   -9.167812   -4.231967
615  1 0.0    3.818068   -8.499040   -4.735128
616  2 0.0   -4.288759   -7.218257   -8.708826
617  1 0.0   -4.946448   -7.968835   -8.644972
618  1 0.0   -3.493046   -7.516277   -9.236106
619  2 0.0    0.899046   -1.522513    3.647752
620  1 0.0    1.601420   -0.811026    3.626369
621  1 0.0    1.047042   -2.113248    4.440929
622  2 0.0    9.606280    1.204683   -9.123393
623  1 0.0    9.128286    2.070553   -9.271017
624  1 0.0   -9.482647    1.046202    9.857255
625  2 0.0    9.184315   -3.599434   -9.382440
626  1 0.0    9.673820   -3.715253   -8.518166
627  1 0.0    8.893590   -4.493487   -9.723246
628  2 0.0    3.565391   -8.165977    3.486427
629  1 0.0    3.899669   -8.616004    4.314517
630  1 0.0    2.681480   -8.556186    3.228671
631  2 0.0   -5.453383   -0.619622   -9.168003
632  1 0.0   -6.096369    0.064778   -8.824248
633  1 0.0   -4.890639   -0.956988   -8.413349
634  2 0.0   -4.998375    2.051672    8.551119
635  1 0.0   -5.568849    1.781513    9.326731
636  1 0.0   -4.950325    1.298952    7.894534