begin
comment Generated from states.cdmp, TIMESTEP: 0
lattice   1.5246000000000000E+01   0.0000000000000000E+00   0.0000000000000000E+00
lattice   0.0000000000000000E+00   1.1884000000000000E+01   0.0000000000000000E+00
lattice  -5.9893571590294590E+00   0.0000000000000000E+00   1.2091965796411374E+01
atom   9.5538084006653907E+00   9.8518360000000005E-01   1.0183853593737661E+01  S   0.0000000000000000E+00   0.0000000000000000E+00   0.0000000000000000E+00   0.0000000000000000E+00   0.0000000000000000E+00 
atom  -3.2918441392095801E+00   6.9271836000000011E+00   7.9540951008794023E+00  S   0.0000000000000000E+00   0.0000000000000000E+00   0.0000000000000000E+00   0.0000000000000000E+00   0.0000000000000000E+00 
atom  -2.9716555969484970E-01   1.0898816399999999E+01   1.9081122026737150E+00  S   0.0000000000000000E+00   0.0000000000000000E+00   0.0000000000000000E+00   0.0000000000000000E+00   0.0000000000000000E+00 
atom   1.2548486980180121E+01   4.9568164000000001E+00   4.1378706955319728E+00  S   0.0000000000000000E+00   0.0000000000000000E+00   0.0000000000000000E+00   0.0000000000000000E+00   0.0000000000000000E+00 
atom   1.2277544351544000E+01   9.1269119999999992E-01   4.1862385587176183E+00  S   0.0000000000000000E+00   0.0000000000000000E+00   0.0000000000000000E+00   0.0000000000000000E+00   0.0000000000000000E+00 
atom  -2.6222931058731080E-02   6.8546912000000004E+00   1.8597443394880691E+00  S   0.0000000000000000E+00   0.0000000000000000E+00   0.0000000000000000E+00   0.0000000000000000E+00   0.0000000000000000E+00 
atom  -3.0209015105734611E+00   1.0971308799999999E+01   7.9057272376937560E+00  S   0.0000000000000000E+00   0.0000000000000000E+00   0.0000000000000000E+00   0.0000000000000000E+00   0.0000000000000000E+00 
atom   9.2828657720292718E+00   5.0293088000000008E+00   1.0232221456923311E+01  S   0.0000000000000000E+00   0.0000000000000000E+00   0.0000000000000000E+00   0.0000000000000000E+00   0.0000000000000000E+00 
atom   9.0699177918038671E+00   9.7924160000000005E-01   6.1282082656212848E+00  S   0.0000000000000000E+00   0.0000000000000000E+00   0.0000000000000000E+00   0.0000000000000000E+00   0.0000000000000000E+00 
atom  -2.8079535303480601E+00   6.9212416000000001E+00   1.2009740428995780E+01  S   0.0000000000000000E+00   0.0000000000000000E+00   0.0000000000000000E+00   0.0000000000000000E+00   0.0000000000000000E+00 
atom   1.8672504916667079E-01   1.0904758400000000E+01   5.9637575307900894E+00  S   0.0000000000000000E+00   0.0000000000000000E+00   0.0000000000000000E+00   0.0000000000000000E+00   0.0000000000000000E+00 
atom   1.2064596371318601E+01   4.9627584000000002E+00   8.2225367415599035E-02  S   0.0000000000000000E+00   0.0000000000000000E+00   0.0000000000000000E+00   0.0000000000000000E+00   0.0000000000000000E+00 
atom   1.2034322057045820E+01   9.7092279999999997E-01   7.2551794778468251E-02  S   0.0000000000000000E+00   0.0000000000000000E+00   0.0000000000000000E+00   0.0000000000000000E+00   0.0000000000000000E+00 
atom   2.1699936343944831E-01   6.9129228000000014E+00   5.9734311034272194E+00  S   0.0000000000000000E+00   0.0000000000000000E+00   0.0000000000000000E+00   0.0000000000000000E+00   0.0000000000000000E+00 
atom  -2.7776792160752808E+00   1.0913077200000000E+01   1.2019414001632910E+01  S   0.0000000000000000E+00   0.0000000000000000E+00   0.0000000000000000E+00   0.0000000000000000E+00   0.0000000000000000E+00 
atom   9.0396434775310901E+00   4.9710771999999999E+00   6.1185346929841558E+00  S   0.0000000000000000E+00   0.0000000000000000E+00   0.0000000000000000E+00   0.0000000000000000E+00   0.0000000000000000E+00 
atom   3.1737058543672312E+00   1.0493572000000000E+00   7.4160026229390956E+00  S   0.0000000000000000E+00   0.0000000000000000E+00   0.0000000000000000E+00   0.0000000000000000E+00   0.0000000000000000E+00 
atom   3.0882584070885728E+00   6.9913572000000004E+00   1.0721946071677969E+01  S   0.0000000000000000E+00   0.0000000000000000E+00   0.0000000000000000E+00   0.0000000000000000E+00   0.0000000000000000E+00 
atom   6.0829369866033058E+00   1.0834642799999999E+01   4.6759631734722786E+00  S   0.0000000000000000E+00   0.0000000000000000E+00   0.0000000000000000E+00   0.0000000000000000E+00   0.0000000000000000E+00 
atom   6.1683844338819629E+00   4.8926428000000000E+00   1.3700197247334081E+00  S   0.0000000000000000E+00   0.0000000000000000E+00   0.0000000000000000E+00   0.0000000000000000E+00   0.0000000000000000E+00 
atom   6.2021409198808790E+00   8.6277839999999995E-01   1.1572011267165681E+00  S   0.0000000000000000E+00   0.0000000000000000E+00   0.0000000000000000E+00   0.0000000000000000E+00   0.0000000000000000E+00 
atom   6.0491805006043879E+00   6.8047784000000000E+00   4.8887817714891186E+00  S   0.0000000000000000E+00   0.0000000000000000E+00   0.0000000000000000E+00   0.0000000000000000E+00   0.0000000000000000E+00 
atom   3.0545019210896611E+00   1.1021221600000001E+01   1.0934764669694809E+01  S   0.0000000000000000E+00   0.0000000000000000E+00   0.0000000000000000E+00   0.0000000000000000E+00   0.0000000000000000E+00 
atom   3.2074623403661522E+00   5.0792216000000012E+00   7.2031840249222556E+00  S   0.0000000000000000E+00   0.0000000000000000E+00   0.0000000000000000E+00   0.0000000000000000E+00   0.0000000000000000E+00 
atom  -1.4015081272437779E-01   9.2814040000000009E-01   9.5139586886164693E+00  S   0.0000000000000000E+00   0.0000000000000000E+00   0.0000000000000000E+00   0.0000000000000000E+00   0.0000000000000000E+00 
atom   6.4021150741801902E+00   6.8701404000000021E+00   8.6239900060005912E+00  S   0.0000000000000000E+00   0.0000000000000000E+00   0.0000000000000000E+00   0.0000000000000000E+00   0.0000000000000000E+00 
atom   9.3967936536949193E+00   1.0955859600000000E+01   2.5780071077949041E+00  S   0.0000000000000000E+00   0.0000000000000000E+00   0.0000000000000000E+00   0.0000000000000000E+00   0.0000000000000000E+00 
atom   2.8545277667903521E+00   5.0138596000000000E+00   3.4679757904107809E+00  S   0.0000000000000000E+00   0.0000000000000000E+00   0.0000000000000000E+00   0.0000000000000000E+00   0.0000000000000000E+00 
atom   2.6160912310744480E+00   9.8874879999999998E-01   3.4691849869904230E+00  S   0.0000000000000000E+00   0.0000000000000000E+00   0.0000000000000000E+00   0.0000000000000000E+00   0.0000000000000000E+00 
atom   9.6352301894108230E+00   6.9307488000000008E+00   2.5767979112152641E+00  S   0.0000000000000000E+00   0.0000000000000000E+00   0.0000000000000000E+00   0.0000000000000000E+00   0.0000000000000000E+00 
atom   6.6405516098960931E+00   1.0895251200000001E+01   8.6227808094209522E+00  S   0.0000000000000000E+00   0.0000000000000000E+00   0.0000000000000000E+00   0.0000000000000000E+00   0.0000000000000000E+00 
atom  -3.7858734844028058E-01   4.9532512000000004E+00   9.5151678851961101E+00  S   0.0000000000000000E+00   0.0000000000000000E+00   0.0000000000000000E+00   0.0000000000000000E+00   0.0000000000000000E+00 
atom   6.2869001311807260E+00   2.9484203999999998E+00   8.7303993050090121E+00  S   0.0000000000000000E+00   0.0000000000000000E+00   0.0000000000000000E+00   0.0000000000000000E+00   0.0000000000000000E+00 
atom  -2.4935869724920678E-02   8.8904204000000000E+00   9.4075493896080502E+00  S   0.0000000000000000E+00   0.0000000000000000E+00   0.0000000000000000E+00   0.0000000000000000E+00   0.0000000000000000E+00 
atom   2.9697427097898088E+00   8.9355796000000005E+00   3.3615664914023622E+00  S   0.0000000000000000E+00   0.0000000000000000E+00   0.0000000000000000E+00   0.0000000000000000E+00   0.0000000000000000E+00 
atom   9.2815787106954595E+00   2.9935795999999999E+00   2.6844164068033249E+00  S   0.0000000000000000E+00   0.0000000000000000E+00   0.0000000000000000E+00   0.0000000000000000E+00   0.0000000000000000E+00 
atom   5.8575182718324248E+00   2.6584508000000011E+00   5.0387221473646200E+00  S   0.0000000000000000E+00   0.0000000000000000E+00   0.0000000000000000E+00   0.0000000000000000E+00   0.0000000000000000E+00 
atom   6.3938031486528430E+00   8.6004508000000008E+00   1.0072607508410669E+00  S   0.0000000000000000E+00   0.0000000000000000E+00   0.0000000000000000E+00   0.0000000000000000E+00   0.0000000000000000E+00 
atom   3.3991245691381140E+00   9.2255491999999997E+00   7.0532436490467534E+00  S   0.0000000000000000E+00   0.0000000000000000E+00   0.0000000000000000E+00   0.0000000000000000E+00   0.0000000000000000E+00 
atom   2.8628396923176909E+00   3.2835491999999999E+00   1.1084705045570310E+01  S   0.0000000000000000E+00   0.0000000000000000E+00   0.0000000000000000E+00   0.0000000000000000E+00   0.0000000000000000E+00 
atom   1.4893437800656001E-01   2.8331455999999999E+00   5.7630308985696610E+00  S   0.0000000000000000E+00   0.0000000000000000E+00   0.0000000000000000E+00   0.0000000000000000E+00   0.0000000000000000E+00 
atom   1.2102387042478711E+01   8.7751456000000001E+00   2.8295199963602591E-01  S   0.0000000000000000E+00   0.0000000000000000E+00   0.0000000000000000E+00   0.0000000000000000E+00   0.0000000000000000E+00 
atom   9.1077084629639771E+00   9.0508544000000004E+00   6.3289348978417133E+00  S   0.0000000000000000E+00   0.0000000000000000E+00   0.0000000000000000E+00   0.0000000000000000E+00   0.0000000000000000E+00 
atom  -2.8457442015081700E+00   3.1088544000000011E+00   1.1809013796775350E+01  S   0.0000000000000000E+00   0.0000000000000000E+00   0.0000000000000000E+00   0.0000000000000000E+00   0.0000000000000000E+00 
atom  -6.1400573582724112E-02   2.7618415999999999E+00   1.6106498440819950E+00  S   0.0000000000000000E+00   0.0000000000000000E+00   0.0000000000000000E+00   0.0000000000000000E+00   0.0000000000000000E+00 
atom   1.2312721994067990E+01   8.7038415999999987E+00   4.4353330541236922E+00  S   0.0000000000000000E+00   0.0000000000000000E+00   0.0000000000000000E+00   0.0000000000000000E+00   0.0000000000000000E+00 
atom   9.3180434145532658E+00   9.1221584000000018E+00   1.0481315952329380E+01  S   0.0000000000000000E+00   0.0000000000000000E+00   0.0000000000000000E+00   0.0000000000000000E+00   0.0000000000000000E+00 
atom  -3.0560791530974529E+00   3.1801583999999998E+00   7.6566327422876821E+00  S   0.0000000000000000E+00   0.0000000000000000E+00   0.0000000000000000E+00   0.0000000000000000E+00   0.0000000000000000E+00 
atom   1.1427082159552080E+01   2.9662464000000002E+00   3.5393183886096100E+00 Cu   0.0000000000000000E+00   0.0000000000000000E+00   0.0000000000000000E+00   0.0000000000000000E+00   0.0000000000000000E+00 
atom   8.2423926093319189E-01   8.9082464000000012E+00   2.5066645095960780E+00 Cu   0.0000000000000000E+00   0.0000000000000000E+00   0.0000000000000000E+00   0.0000000000000000E+00   0.0000000000000000E+00 
atom  -2.1704393185815380E+00   8.9177535999999993E+00   8.5526474078017660E+00 Cu   0.0000000000000000E+00   0.0000000000000000E+00   0.0000000000000000E+00   0.0000000000000000E+00   0.0000000000000000E+00 
atom   8.4324035800373487E+00   2.9757536000000009E+00   9.5853012868152963E+00 Cu   0.0000000000000000E+00   0.0000000000000000E+00   0.0000000000000000E+00   0.0000000000000000E+00   0.0000000000000000E+00 
atom   5.3565064819165684E+00   8.7941599999999998E-01   8.1802148612722938E+00 Cu   0.0000000000000000E+00   0.0000000000000000E+00   0.0000000000000000E+00   0.0000000000000000E+00   0.0000000000000000E+00 
atom   9.0545777953924045E-01   6.8214159999999993E+00   9.9577338333447667E+00 Cu   0.0000000000000000E+00   0.0000000000000000E+00   0.0000000000000000E+00   0.0000000000000000E+00   0.0000000000000000E+00 
atom   3.9001363590539699E+00   1.1004583999999999E+01   3.9117509351390800E+00 Cu   0.0000000000000000E+00   0.0000000000000000E+00   0.0000000000000000E+00   0.0000000000000000E+00   0.0000000000000000E+00 
atom   8.3511850614312966E+00   5.0625840000000011E+00   2.1342319630666058E+00 Cu   0.0000000000000000E+00   0.0000000000000000E+00   0.0000000000000000E+00   0.0000000000000000E+00   0.0000000000000000E+00 
atom   8.2986940044307556E+00   1.0885743999999999E+00   2.0278226640581871E+00 Cu   0.0000000000000000E+00   0.0000000000000000E+00   0.0000000000000000E+00   0.0000000000000000E+00   0.0000000000000000E+00 
atom   3.9526274160545110E+00   7.0305744000000017E+00   4.0181602341474996E+00 Cu   0.0000000000000000E+00   0.0000000000000000E+00   0.0000000000000000E+00   0.0000000000000000E+00   0.0000000000000000E+00 
atom   9.5794883653978147E-01   1.0795425600000000E+01   1.0064143132353189E+01 Cu   0.0000000000000000E+00   0.0000000000000000E+00   0.0000000000000000E+00   0.0000000000000000E+00   0.0000000000000000E+00 
atom   5.3040154249160283E+00   4.8534255999999996E+00   8.0738055622638747E+00 Cu   0.0000000000000000E+00   0.0000000000000000E+00   0.0000000000000000E+00   0.0000000000000000E+00   0.0000000000000000E+00 
atom   5.0934267916749469E+00   2.8521600000000000E+00   8.8392269971767146E-01 Cu   0.0000000000000000E+00   0.0000000000000000E+00   0.0000000000000000E+00   0.0000000000000000E+00   0.0000000000000000E+00 
atom   7.1578946288103200E+00   8.7941599999999998E+00   5.1620601984880157E+00 Cu   0.0000000000000000E+00   0.0000000000000000E+00   0.0000000000000000E+00   0.0000000000000000E+00   0.0000000000000000E+00 
atom   4.1632160492955954E+00   9.0318400000000025E+00   1.1208043096693700E+01 Cu   0.0000000000000000E+00   0.0000000000000000E+00   0.0000000000000000E+00   0.0000000000000000E+00   0.0000000000000000E+00 
atom   2.0987482121602161E+00   3.0898400000000001E+00   6.9299055979233577E+00 Cu   0.0000000000000000E+00   0.0000000000000000E+00   0.0000000000000000E+00   0.0000000000000000E+00   0.0000000000000000E+00 
atom  -3.7151518509987431E+00   1.0089516000000001E+00   1.1428116874188390E+01 Cu   0.0000000000000000E+00   0.0000000000000000E+00   0.0000000000000000E+00   0.0000000000000000E+00   0.0000000000000000E+00 
atom   9.9771161124545564E+00   6.9509515999999998E+00   6.7098318204286711E+00 Cu   0.0000000000000000E+00   0.0000000000000000E+00   0.0000000000000000E+00   0.0000000000000000E+00   0.0000000000000000E+00 
atom   1.2971794691969279E+01   1.0875048400000001E+01   6.6384892222298386E-01 Cu   0.0000000000000000E+00   0.0000000000000000E+00   0.0000000000000000E+00   0.0000000000000000E+00   0.0000000000000000E+00 
atom  -7.2047327148401452E-01   4.9330484000000014E+00   5.3821339759827032E+00 Cu   0.0000000000000000E+00   0.0000000000000000E+00   0.0000000000000000E+00   0.0000000000000000E+00   0.0000000000000000E+00 
atom  -1.0289872857341480E+00   9.3051719999999993E-01   5.3555316512305966E+00 Cu   0.0000000000000000E+00   0.0000000000000000E+00   0.0000000000000000E+00   0.0000000000000000E+00   0.0000000000000000E+00 
atom   1.3280308706219421E+01   6.8725172000000008E+00   6.9045124697508931E-01 Cu   0.0000000000000000E+00   0.0000000000000000E+00   0.0000000000000000E+00   0.0000000000000000E+00   0.0000000000000000E+00 
atom   1.0285630126704691E+01   1.0953482800000000E+01   6.7364341451807759E+00 Cu   0.0000000000000000E+00   0.0000000000000000E+00   0.0000000000000000E+00   0.0000000000000000E+00   0.0000000000000000E+00 
atom  -4.0236658652488781E+00   5.0114828000000013E+00   1.1401514549436291E+01 Cu   0.0000000000000000E+00   0.0000000000000000E+00   0.0000000000000000E+00   0.0000000000000000E+00   0.0000000000000000E+00 
atom   8.3041478910950630E+00   1.4652972000000000E+00   1.1998857659779009E+01 Cu   0.0000000000000000E+00   0.0000000000000000E+00   0.0000000000000000E+00   0.0000000000000000E+00   0.0000000000000000E+00 
atom  -2.0421836296392559E+00   7.4072971999999986E+00   6.1390910348380556E+00 Cu   0.0000000000000000E+00   0.0000000000000000E+00   0.0000000000000000E+00   0.0000000000000000E+00   0.0000000000000000E+00 
atom   9.5249494987547301E-01   1.0418702800000000E+01   9.3108136632368069E-02 Cu   0.0000000000000000E+00   0.0000000000000000E+00   0.0000000000000000E+00   0.0000000000000000E+00   0.0000000000000000E+00 
atom   1.1298826470609800E+01   4.4767028000000009E+00   5.9528747615733186E+00 Cu   0.0000000000000000E+00   0.0000000000000000E+00   0.0000000000000000E+00   0.0000000000000000E+00   0.0000000000000000E+00 
atom   1.1298611184610881E+01   1.6780208000000001E+00   6.1656933595901604E+00 Cu   0.0000000000000000E+00   0.0000000000000000E+00   0.0000000000000000E+00   0.0000000000000000E+00   0.0000000000000000E+00 
atom  -5.0366469231550690E+00   7.6200207999999998E+00   1.1972255335026899E+01 Cu   0.0000000000000000E+00   0.0000000000000000E+00   0.0000000000000000E+00   0.0000000000000000E+00   0.0000000000000000E+00 
atom  -2.0419683436403369E+00   1.0205979200000000E+01   5.9262724368212139E+00 Cu   0.0000000000000000E+00   0.0000000000000000E+00   0.0000000000000000E+00   0.0000000000000000E+00   0.0000000000000000E+00 
atom   1.4293289764125610E+01   4.2639792000000014E+00   1.1971046138447280E-01 Cu   0.0000000000000000E+00   0.0000000000000000E+00   0.0000000000000000E+00   0.0000000000000000E+00   0.0000000000000000E+00 
atom   9.1488021433547946E+00   2.9757536000000009E+00   4.9685887457454339E+00 Cu   0.0000000000000000E+00   0.0000000000000000E+00   0.0000000000000000E+00   0.0000000000000000E+00   0.0000000000000000E+00 
atom   3.1025192771304759E+00   8.9177535999999993E+00   1.0773941524602531E+00 Cu   0.0000000000000000E+00   0.0000000000000000E+00   0.0000000000000000E+00   0.0000000000000000E+00   0.0000000000000000E+00 
atom   1.0784069761574690E-01   8.9082464000000012E+00   7.1233770506659404E+00 Cu   0.0000000000000000E+00   0.0000000000000000E+00   0.0000000000000000E+00   0.0000000000000000E+00   0.0000000000000000E+00 
atom   6.1541235638400611E+00   2.9662464000000002E+00   1.1014571643951120E+01 Cu   0.0000000000000000E+00   0.0000000000000000E+00   0.0000000000000000E+00   0.0000000000000000E+00   0.0000000000000000E+00 
atom   1.1536023277392631E+00   1.7552668000000000E+00   1.1303569626485350E+01 Cu   0.0000000000000000E+00   0.0000000000000000E+00   0.0000000000000000E+00   0.0000000000000000E+00   0.0000000000000000E+00 
atom   5.1083619337165462E+00   7.6972668000000004E+00   6.8343790681317094E+00 Cu   0.0000000000000000E+00   0.0000000000000000E+00   0.0000000000000000E+00   0.0000000000000000E+00   0.0000000000000000E+00 
atom   8.1030405132312779E+00   1.0128733199999999E+01   7.8839616992602202E-01 Cu   0.0000000000000000E+00   0.0000000000000000E+00   0.0000000000000000E+00   0.0000000000000000E+00   0.0000000000000000E+00 
atom   4.1482809072539908E+00   4.1867331999999999E+00   5.2575867282796667E+00 Cu   0.0000000000000000E+00   0.0000000000000000E+00   0.0000000000000000E+00   0.0000000000000000E+00   0.0000000000000000E+00 
atom   3.8575184786178740E+00   1.4605436000000001E+00   5.3059545914653112E+00 Cu   0.0000000000000000E+00   0.0000000000000000E+00   0.0000000000000000E+00   0.0000000000000000E+00   0.0000000000000000E+00 
atom   8.3938029418673938E+00   7.4025435999999996E+00   7.4002830674037579E-01 Cu   0.0000000000000000E+00   0.0000000000000000E+00   0.0000000000000000E+00   0.0000000000000000E+00   0.0000000000000000E+00 
atom   5.3991243623526639E+00   1.0423456399999999E+01   6.7860112049460621E+00 Cu   0.0000000000000000E+00   0.0000000000000000E+00   0.0000000000000000E+00   0.0000000000000000E+00   0.0000000000000000E+00 
atom   8.6283989910314585E-01   4.4814563999999999E+00   1.1351937489671000E+01 Cu   0.0000000000000000E+00   0.0000000000000000E+00   0.0000000000000000E+00   0.0000000000000000E+00   0.0000000000000000E+00 
atom  -1.1647273351863621E+00   2.8010587999999998E+00   1.0286635303007159E+01 Cu   0.0000000000000000E+00   0.0000000000000000E+00   0.0000000000000000E+00   0.0000000000000000E+00   0.0000000000000000E+00 
atom   7.4266915966421729E+00   8.7430588000000000E+00   7.8513133916099056E+00 Cu   0.0000000000000000E+00   0.0000000000000000E+00   0.0000000000000000E+00   0.0000000000000000E+00   0.0000000000000000E+00 
atom   1.0421370176156900E+01   9.0829412000000005E+00   1.8053304934042180E+00 Cu   0.0000000000000000E+00   0.0000000000000000E+00   0.0000000000000000E+00   0.0000000000000000E+00   0.0000000000000000E+00 
atom   1.8299512443283681E+00   3.1409411999999999E+00   4.2406524048014687E+00 Cu   0.0000000000000000E+00   0.0000000000000000E+00   0.0000000000000000E+00   0.0000000000000000E+00   0.0000000000000000E+00 
atom   8.4247104603828795E+00   4.2544720000000003E-01   8.2588126389489691E+00 Cu   0.0000000000000000E+00   0.0000000000000000E+00   0.0000000000000000E+00   0.0000000000000000E+00   0.0000000000000000E+00 
atom  -2.1627461989270671E+00   6.3674472000000009E+00   9.8791360556680914E+00 Cu   0.0000000000000000E+00   0.0000000000000000E+00   0.0000000000000000E+00   0.0000000000000000E+00   0.0000000000000000E+00 
atom   8.3193238058766239E-01   1.1458552800000000E+01   3.8331531574624051E+00 Cu   0.0000000000000000E+00   0.0000000000000000E+00   0.0000000000000000E+00   0.0000000000000000E+00   0.0000000000000000E+00 
atom   1.1419389039897609E+01   5.5165528000000013E+00   2.2128297407432820E+00 Cu   0.0000000000000000E+00   0.0000000000000000E+00   0.0000000000000000E+00   0.0000000000000000E+00   0.0000000000000000E+00 
atom   1.0936796418726180E+01   7.4156159999999993E-01   2.0205674845803410E+00 Cu   0.0000000000000000E+00   0.0000000000000000E+00   0.0000000000000000E+00   0.0000000000000000E+00   0.0000000000000000E+00 
atom   1.3145250017590930E+00   6.6835616000000000E+00   4.0254154136253462E+00 Cu   0.0000000000000000E+00   0.0000000000000000E+00   0.0000000000000000E+00   0.0000000000000000E+00   0.0000000000000000E+00 
atom  -1.6801535777556369E+00   1.1142438400000000E+01   1.0071398311831031E+01 Cu   0.0000000000000000E+00   0.0000000000000000E+00   0.0000000000000000E+00   0.0000000000000000E+00   0.0000000000000000E+00 
atom   7.9421178392114449E+00   5.2004384000000003E+00   8.0665503827860281E+00 Cu   0.0000000000000000E+00   0.0000000000000000E+00   0.0000000000000000E+00   0.0000000000000000E+00   0.0000000000000000E+00 
atom  -4.2270609982025480E+00   2.4302779999999999E+00   9.3374159879888623E+00 Cu   0.0000000000000000E+00   0.0000000000000000E+00   0.0000000000000000E+00   0.0000000000000000E+00   0.0000000000000000E+00 
atom   1.0489025259658360E+01   8.3722779999999997E+00   8.8005327066281982E+00 Cu   0.0000000000000000E+00   0.0000000000000000E+00   0.0000000000000000E+00   0.0000000000000000E+00   0.0000000000000000E+00 
atom   1.3483703839173090E+01   9.4537220000000008E+00   2.7545498084225111E+00 Cu   0.0000000000000000E+00   0.0000000000000000E+00   0.0000000000000000E+00   0.0000000000000000E+00   0.0000000000000000E+00 
atom  -1.2323824186878189E+00   3.5117219999999998E+00   3.2914330897831761E+00 Cu   0.0000000000000000E+00   0.0000000000000000E+00   0.0000000000000000E+00   0.0000000000000000E+00   0.0000000000000000E+00 
atom   5.9652557811310523E+00   9.4477800000000001E-01   3.4268631067029829E+00 Cu   0.0000000000000000E+00   0.0000000000000000E+00   0.0000000000000000E+00   0.0000000000000000E+00   0.0000000000000000E+00 
atom   6.2860656393542182E+00   6.8867780000000014E+00   2.6191197915027038E+00 Cu   0.0000000000000000E+00   0.0000000000000000E+00   0.0000000000000000E+00   0.0000000000000000E+00   0.0000000000000000E+00 
atom   3.2913870598394870E+00   1.0939221999999999E+01   8.6651026897083909E+00 Cu   0.0000000000000000E+00   0.0000000000000000E+00   0.0000000000000000E+00   0.0000000000000000E+00   0.0000000000000000E+00 
atom   2.9705772016163241E+00   4.9972219999999998E+00   9.4728460049086696E+00 Cu   0.0000000000000000E+00   0.0000000000000000E+00   0.0000000000000000E+00   0.0000000000000000E+00   0.0000000000000000E+00 
atom   8.7597168992464747E-01   5.1576560000000016E-01   7.5332946911642864E+00 Cu   0.0000000000000000E+00   0.0000000000000000E+00   0.0000000000000000E+00   0.0000000000000000E+00   0.0000000000000000E+00 
atom   5.3859925715311654E+00   6.4577656000000001E+00   1.0604654003452779E+01 Cu   0.0000000000000000E+00   0.0000000000000000E+00   0.0000000000000000E+00   0.0000000000000000E+00   0.0000000000000000E+00 
atom   8.3806711510458936E+00   1.1368234400000000E+01   4.5586711052470879E+00 Cu   0.0000000000000000E+00   0.0000000000000000E+00   0.0000000000000000E+00   0.0000000000000000E+00   0.0000000000000000E+00 
atom   3.8706502694393770E+00   5.4262344000000002E+00   1.4873117929585991E+00 Cu   0.0000000000000000E+00   0.0000000000000000E+00   0.0000000000000000E+00   0.0000000000000000E+00   0.0000000000000000E+00 
atom   3.8480550764059549E+00   5.1220040000000000E-01   1.6191142201394830E+00 Cu   0.0000000000000000E+00   0.0000000000000000E+00   0.0000000000000000E+00   0.0000000000000000E+00   0.0000000000000000E+00 
atom   8.4032663440793165E+00   6.4542004000000004E+00   4.4268686780662039E+00 Cu   0.0000000000000000E+00   0.0000000000000000E+00   0.0000000000000000E+00   0.0000000000000000E+00   0.0000000000000000E+00 
atom   5.4085877645645866E+00   1.1371799599999999E+01   1.0472851576271889E+01 Cu   0.0000000000000000E+00   0.0000000000000000E+00   0.0000000000000000E+00   0.0000000000000000E+00   0.0000000000000000E+00 
atom   8.5337649689122408E-01   5.4297996000000008E+00   7.6650971183451704E+00 Cu   0.0000000000000000E+00   0.0000000000000000E+00   0.0000000000000000E+00   0.0000000000000000E+00   0.0000000000000000E+00 
atom   3.4757056949440801E+00   2.4742487999999998E+00   9.1209698002330999E+00 Cu   0.0000000000000000E+00   0.0000000000000000E+00   0.0000000000000000E+00   0.0000000000000000E+00   0.0000000000000000E+00 
atom   2.7862585665117332E+00   8.4162488000000000E+00   9.0169788943839624E+00 Cu   0.0000000000000000E+00   0.0000000000000000E+00   0.0000000000000000E+00   0.0000000000000000E+00   0.0000000000000000E+00 
atom   5.7809371460264609E+00   9.4097512000000005E+00   2.9709959961782748E+00 Cu   0.0000000000000000E+00   0.0000000000000000E+00   0.0000000000000000E+00   0.0000000000000000E+00   0.0000000000000000E+00 
atom   6.4703842744588087E+00   3.4677512000000008E+00   3.0749869020274119E+00 Cu   0.0000000000000000E+00   0.0000000000000000E+00   0.0000000000000000E+00   0.0000000000000000E+00   0.0000000000000000E+00 
atom   1.3936508439354220E+01   1.0172703999999999E+00   2.6191197915027029E+00 Cu   0.0000000000000000E+00   0.0000000000000000E+00   0.0000000000000000E+00   0.0000000000000000E+00   0.0000000000000000E+00 
atom  -1.6851870188689480E+00   6.9592704000000003E+00   3.4268631067029829E+00 Cu   0.0000000000000000E+00   0.0000000000000000E+00   0.0000000000000000E+00   0.0000000000000000E+00   0.0000000000000000E+00 
atom  -4.6798655983836763E+00   1.0866729599999999E+01   9.4728460049086696E+00 Cu   0.0000000000000000E+00   0.0000000000000000E+00   0.0000000000000000E+00   0.0000000000000000E+00   0.0000000000000000E+00 
atom   1.0941829859839491E+01   4.9247296000000000E+00   8.6651026897083909E+00 Cu   0.0000000000000000E+00   0.0000000000000000E+00   0.0000000000000000E+00   0.0000000000000000E+00   0.0000000000000000E+00 
atom   3.7852278917290239E+00   1.2264288000000001E+00   1.1524852600559679E+01 Cu   0.0000000000000000E+00   0.0000000000000000E+00   0.0000000000000000E+00   0.0000000000000000E+00   0.0000000000000000E+00 
atom   2.4767363697267890E+00   7.1684288000000009E+00   6.6130960940573811E+00 Cu   0.0000000000000000E+00   0.0000000000000000E+00   0.0000000000000000E+00   0.0000000000000000E+00   0.0000000000000000E+00 
atom   5.4714149492415158E+00   1.0657571200000000E+01   5.6711319585169406E-01 Cu   0.0000000000000000E+00   0.0000000000000000E+00   0.0000000000000000E+00   0.0000000000000000E+00   0.0000000000000000E+00 
atom   6.7799064712437493E+00   4.7155712000000003E+00   5.4788697023539941E+00 Cu   0.0000000000000000E+00   0.0000000000000000E+00   0.0000000000000000E+00   0.0000000000000000E+00   0.0000000000000000E+00 
atom   7.3392329837052301E+00   2.3102496000000001E+00   6.8428434441891959E+00 Cu   0.0000000000000000E+00   0.0000000000000000E+00   0.0000000000000000E+00   0.0000000000000000E+00   0.0000000000000000E+00 
atom  -1.0772687222494179E+00   8.2522496000000025E+00   1.1295105250427859E+01 Cu   0.0000000000000000E+00   0.0000000000000000E+00   0.0000000000000000E+00   0.0000000000000000E+00   0.0000000000000000E+00 
atom   1.9174098572653120E+00   9.5737503999999998E+00   5.2491223522221784E+00 Cu   0.0000000000000000E+00   0.0000000000000000E+00   0.0000000000000000E+00   0.0000000000000000E+00   0.0000000000000000E+00 
atom   1.0333911563219960E+01   3.6317504000000000E+00   7.9686054598351042E-01 Cu   0.0000000000000000E+00   0.0000000000000000E+00   0.0000000000000000E+00   0.0000000000000000E+00   0.0000000000000000E+00 
atom   2.2545766691676810E+00   2.4587995999999999E+00   1.6904568183383100E+00 Cu   0.0000000000000000E+00   0.0000000000000000E+00   0.0000000000000000E+00   0.0000000000000000E+00   0.0000000000000000E+00 
atom   9.9967447513175891E+00   8.4007995999999991E+00   4.3555260798673769E+00 Cu   0.0000000000000000E+00   0.0000000000000000E+00   0.0000000000000000E+00   0.0000000000000000E+00   0.0000000000000000E+00 
atom   7.0020661718028574E+00   9.4252004000000014E+00   1.0401508978073061E+01 Cu   0.0000000000000000E+00   0.0000000000000000E+00   0.0000000000000000E+00   0.0000000000000000E+00   0.0000000000000000E+00 
atom  -7.4010191034704897E-01   3.4832003999999999E+00   7.7364397165439973E+00 Cu   0.0000000000000000E+00   0.0000000000000000E+00   0.0000000000000000E+00   0.0000000000000000E+00   0.0000000000000000E+00 
atom  -2.0731956466969068E+00   1.1479944000000000E+00   8.2116539723429653E+00 Cu   0.0000000000000000E+00   0.0000000000000000E+00   0.0000000000000000E+00   0.0000000000000000E+00   0.0000000000000000E+00 
atom   8.3351599081527183E+00   7.0899944000000001E+00   9.9262947222740969E+00 Cu   0.0000000000000000E+00   0.0000000000000000E+00   0.0000000000000000E+00   0.0000000000000000E+00   0.0000000000000000E+00 