begin
comment source_file_name=OUTCAR_6_1
lattice 15.594764320 0.000000000 0.000000000
lattice 0.000000000 12.155855908 0.000000000
lattice -6.126368446 0.000000000 12.368579086
atom 9.63890 0.96312 10.51091 S 0.0 0.0 0.350210 -0.554056 0.113180
atom -3.00763 6.95453 7.97469 S 0.0 0.0 -0.752995 0.652737 -0.990832
atom -0.27520 11.31741 1.87879 S 0.0 0.0 0.141941 -0.154466 -0.838454
atom 12.83483 4.97391 4.57177 S 0.0 0.0 -0.160867 -0.271579 0.083792
atom -2.11030 0.79776 4.27963 S 0.0 0.0 -0.838203 0.531100 0.027313
atom -0.24651 7.77005 2.23788 S 0.0 0.0 0.272415 -0.988896 -0.541814
atom -3.21096 11.38980 7.66647 S 0.0 0.0 0.215740 -0.090022 0.738258
atom 9.82484 4.70192 10.30542 S 0.0 0.0 0.089792 0.445747 0.462798
atom 9.62785 1.12949 6.66571 S 0.0 0.0 -0.426435 -0.486012 -0.263742
atom -3.37275 6.87430 11.94513 S 0.0 0.0 0.621769 -0.117179 0.712745
atom 0.46861 10.82795 6.00841 S 0.0 0.0 0.371337 -0.883786 1.682212
atom 12.43163 5.26750 0.42978 S 0.0 0.0 -0.357114 -0.926522 -1.411186
atom 12.21606 1.00390 0.12092 S 0.0 0.0 -0.357790 -0.594407 0.510448
atom 0.13736 6.66514 6.39415 S 0.0 0.0 0.695648 -0.333962 0.299355
atom -2.84095 10.84000 12.22732 S 0.0 0.0 -0.672717 -1.409009 0.517012
atom 9.38344 4.90882 6.34489 S 0.0 0.0 0.055830 0.454730 -0.205986
atom 3.07808 1.39839 7.66418 S 0.0 0.0 0.244107 -0.111242 0.370838
atom 3.16249 7.32809 10.98372 S 0.0 0.0 -0.714034 -0.950478 -0.111294
atom 6.31273 11.12718 5.14045 S 0.0 0.0 -0.274480 0.662357 -0.306943
atom 5.85868 4.64735 1.18800 S 0.0 0.0 0.782752 -0.045454 -0.180128
atom 6.58355 0.54045 1.55272 S 0.0 0.0 0.087304 0.415076 -0.680424
atom 6.25457 7.25608 5.22585 S 0.0 0.0 -0.147039 -0.567389 -0.019753
atom 2.91569 11.23516 10.86736 S 0.0 0.0 0.209372 0.036625 0.859137
atom 3.52214 5.52811 7.31099 S 0.0 0.0 0.111239 -0.729708 0.189434
atom -0.26421 0.60508 9.68063 S 0.0 0.0 0.154653 0.337527 -0.335222
atom 7.00375 6.81245 9.22905 S 0.0 0.0 -0.800917 0.279124 0.382910
atom 9.50698 10.85115 2.98481 S 0.0 0.0 0.207452 0.400685 -0.237485
atom 2.86852 5.14912 3.42989 S 0.0 0.0 0.958484 -0.292527 0.253351
atom 3.33036 1.37921 3.07273 S 0.0 0.0 -0.147258 -0.437699 1.521814
atom 9.75984 6.77951 2.40684 S 0.0 0.0 -0.051671 0.134460 0.703435
atom 6.63744 11.19827 8.93785 S 0.0 0.0 -0.218518 0.452267 -0.394139
atom -0.29301 4.68877 10.03355 S 0.0 0.0 0.167882 -0.157980 -0.194136
atom 6.38348 3.00550 8.80720 S 0.0 0.0 0.396542 -0.367888 -0.069142
atom -0.00145 8.77276 9.69386 S 0.0 0.0 -0.630931 -0.354581 -0.138339
atom 3.32647 9.05424 3.41360 S 0.0 0.0 0.470596 0.259571 -0.307733
atom 9.72993 3.10925 2.99770 S 0.0 0.0 0.117259 0.016193 1.507463
atom 6.18881 3.07866 5.12600 S 0.0 0.0 -0.620834 -0.750541 0.247720
atom 6.62155 9.17688 1.21793 S 0.0 0.0 -0.043947 -0.216793 -0.620279
atom 3.68682 9.21703 7.64680 S 0.0 0.0 -0.582258 -0.171337 0.057281
atom 3.43916 3.43558 11.20238 S 0.0 0.0 -0.561531 -0.805216 -0.194839
atom 0.45249 2.73204 6.06382 S 0.0 0.0 -0.734543 0.324681 0.400481
atom 12.28070 8.69179 0.18017 S 0.0 0.0 0.589753 0.702281 -0.672977
atom 9.39626 9.04258 6.36578 S 0.0 0.0 0.464964 -0.343255 -0.057120
atom -2.46286 2.56042 11.73074 S 0.0 0.0 -0.290660 0.433399 0.493213
atom 0.07826 3.23719 1.35581 S 0.0 0.0 -0.287273 -0.426902 0.436177
atom 12.65943 8.86407 4.39292 S 0.0 0.0 0.157043 -0.219561 -0.684782
atom 9.62989 9.46664 10.61323 S 0.0 0.0 -0.042922 -0.606046 0.070045
atom -3.10610 3.01981 7.78888 S 0.0 0.0 0.177979 0.070013 0.430926
atom 11.88291 2.48588 3.55560 Cu 0.0 0.0 -0.515835 -0.969894 0.271462
atom 1.82932 6.72661 2.29972 Cu 0.0 0.0 -0.770300 0.614955 -0.128436
atom -2.19706 9.36109 8.15394 Cu 0.0 0.0 -0.392773 -0.154234 0.399804
atom 8.76665 2.81892 9.53887 Cu 0.0 0.0 -0.780372 0.215782 0.003786
atom 5.28644 0.96172 8.39890 Cu 0.0 0.0 0.136369 0.156347 0.134575
atom 1.08726 6.34064 10.51175 Cu 0.0 0.0 0.407399 0.295713 -0.071598
atom 3.11846 11.24369 3.53539 Cu 0.0 0.0 0.054436 0.546157 -0.273634
atom 8.10032 5.09901 1.64997 Cu 0.0 0.0 0.605351 0.509909 -0.058306
atom 7.92746 2.22430 2.15267 Cu 0.0 0.0 -0.285030 -0.425962 -0.328757
atom 4.02530 7.63044 5.06780 Cu 0.0 0.0 0.098085 -0.020258 -0.150083
atom 0.84801 10.78258 10.08574 Cu 0.0 0.0 -0.012781 0.060098 -0.196227
atom 5.66910 5.17798 8.21035 Cu 0.0 0.0 -0.004776 -0.162723 0.169885
atom 4.94376 2.60399 1.88864 Cu 0.0 0.0 0.462375 -0.260189 -0.200248
atom 7.40734 9.18738 5.43795 Cu 0.0 0.0 -0.302900 0.121631 -0.378230
atom 4.17166 9.21653 11.54214 Cu 0.0 0.0 0.177297 0.858315 -0.057104
atom 2.46372 3.44918 6.94156 Cu 0.0 0.0 -0.152158 0.793010 0.123405
atom -3.70282 0.82198 11.11736 Cu 0.0 0.0 -0.732741 -0.151285 0.137772
atom 10.33710 7.04935 7.03988 Cu 0.0 0.0 0.008680 -0.390136 0.120207
atom 12.82669 10.86539 0.91417 Cu 0.0 0.0 0.146845 -0.152872 -0.227162
atom -0.46169 4.69825 5.33611 Cu 0.0 0.0 -0.102652 -0.282304 -0.105253
atom -2.05266 2.56551 5.95929 Cu 0.0 0.0 0.473966 -0.394692 -0.863912
atom 13.81805 6.84579 0.77730 Cu 0.0 0.0 0.662267 0.802520 0.341623
atom 10.09263 10.93454 7.23191 Cu 0.0 0.0 0.284999 0.287854 -0.489273
atom -3.24744 4.63597 11.36161 Cu 0.0 0.0 0.080581 0.591194 0.458826
atom 12.81367 3.06887 1.23080 Cu 0.0 0.0 -0.428769 -0.680859 -1.237602
atom -1.81844 7.63989 5.93215 Cu 0.0 0.0 -0.486275 0.022661 0.133889
atom -5.20591 11.04101 12.22676 Cu 0.0 0.0 0.042424 -0.306878 0.164773
atom 10.32286 3.17376 7.49533 Cu 0.0 0.0 -0.348939 0.043161 -0.402185
atom 11.79971 0.65657 5.78571 Cu 0.0 0.0 -0.368350 0.060982 -0.021615
atom 0.68742 7.76707 0.10380 Cu 0.0 0.0 -0.013731 0.167446 -0.084235
atom -2.38604 10.38676 5.82587 Cu 0.0 0.0 0.304418 0.435957 0.098024
atom 8.32753 4.36853 12.03424 Cu 0.0 0.0 0.495856 0.244356 0.032684
atom 9.64126 5.38370 4.18339 Cu 0.0 0.0 -0.273690 0.116320 -0.088167
atom 3.45786 8.42182 1.30771 Cu 0.0 0.0 -0.049939 -0.381608 -0.759553
atom 0.03395 8.71504 7.35714 Cu 0.0 0.0 0.474216 0.715643 -0.104378
atom 6.20203 4.14493 10.72187 Cu 0.0 0.0 0.021725 -0.431982 0.231612
atom -0.53441 1.11158 11.87948 Cu 0.0 0.0 0.117618 0.141784 0.490200
atom 5.70291 8.52449 3.23686 Cu 0.0 0.0 -0.786597 -0.056109 0.043648
atom 8.50197 10.71637 0.84741 Cu 0.0 0.0 0.273063 0.173012 -0.235396
atom 4.17338 4.61907 5.27744 Cu 0.0 0.0 0.288215 0.035539 0.071291
atom 4.26979 2.02951 5.90729 Cu 0.0 0.0 0.441252 0.061816 -0.283423
atom 8.57385 7.61490 0.63568 Cu 0.0 0.0 -0.112718 0.308720 0.399107
atom 5.39892 10.45005 7.03329 Cu 0.0 0.0 0.539084 0.343420 0.176989
atom 1.35797 3.95076 11.84888 Cu 0.0 0.0 -0.280319 0.248548 -0.095396
atom -2.03636 4.83174 8.36966 Cu 0.0 0.0 0.143964 0.389341 0.588647
atom 5.51672 8.49240 8.69273 Cu 0.0 0.0 0.349160 -0.426342 0.115098
atom 11.61805 8.80095 2.24001 Cu 0.0 0.0 -0.117756 0.322267 0.627920
atom 1.80554 1.75034 4.70120 Cu 0.0 0.0 0.443307 -0.124167 -0.515893
atom 8.55794 0.17438 8.66293 Cu 0.0 0.0 0.108060 0.196887 -0.155359
atom -2.28377 6.99602 9.99632 Cu 0.0 0.0 0.118645 0.112049 0.598567
atom -0.16013 11.38324 4.11808 Cu 0.0 0.0 -0.064353 0.446815 -0.880797
atom 11.74353 4.95169 2.55846 Cu 0.0 0.0 -0.034973 0.069073 0.153059
atom 10.79854 12.10314 1.63791 Cu 0.0 0.0 -0.092629 0.261468 -0.551144
atom 1.69017 6.43345 4.80581 Cu 0.0 0.0 -0.367641 -0.188162 -0.286776
atom -1.95308 11.28276 10.36773 Cu 0.0 0.0 0.526209 0.275986 -1.094353
atom 7.89584 7.84344 7.49851 Cu 0.0 0.0 -0.011144 -0.048114 0.219074
atom -4.18769 3.03213 9.83693 Cu 0.0 0.0 -0.247626 -0.238604 0.002403
atom 11.06681 8.45215 9.02190 Cu 0.0 0.0 0.258285 -0.066074 0.192159
atom 14.18925 9.60390 2.77560 Cu 0.0 0.0 -0.592992 0.192691 0.066795
atom 13.96762 3.48130 3.22778 Cu 0.0 0.0 1.424278 0.598057 0.475767
atom 7.75127 0.54836 5.67181 Cu 0.0 0.0 0.264939 -0.047939 0.334680
atom 6.32302 6.95165 1.22252 Cu 0.0 0.0 -0.635357 -0.348345 0.130776
atom 3.42464 11.49578 8.21037 Cu 0.0 0.0 -0.252074 -0.970223 0.254409
atom 3.40801 4.40459 9.27523 Cu 0.0 0.0 0.020242 0.564903 -0.342288
atom 1.01152 0.14773 7.70819 Cu 0.0 0.0 -0.042540 -0.056431 -0.094460
atom 5.01572 6.24563 10.65032 Cu 0.0 0.0 0.397037 0.125510 -0.234823
atom 9.44168 0.89609 3.78635 Cu 0.0 0.0 0.500112 -0.143806 -0.093050
atom 3.90714 5.70919 1.39524 Cu 0.0 0.0 -0.408455 0.370502 -0.455892
atom 3.61953 0.26864 1.20542 Cu 0.0 0.0 0.150390 0.255802 0.240142
atom 7.71583 7.33253 3.51263 Cu 0.0 0.0 1.049575 -0.890155 -0.161301
atom 8.29653 0.47927 12.24123 Cu 0.0 0.0 -0.015162 0.031371 -0.066780
atom 0.59136 4.81449 7.99692 Cu 0.0 0.0 0.079805 0.861911 -0.237559
atom 3.10979 1.34200 10.33926 Cu 0.0 0.0 0.299845 -0.019456 0.184481
atom 2.31651 8.56856 9.38923 Cu 0.0 0.0 -0.281297 0.450923 -0.481894
atom 6.77592 10.67790 2.96455 Cu 0.0 0.0 0.252069 0.312058 -0.089641
atom 6.59996 4.12065 3.23358 Cu 0.0 0.0 -0.655784 -0.119046 0.255761
atom -0.70170 1.29773 2.26107 Cu 0.0 0.0 -0.182725 0.592172 0.077913
atom -1.42213 6.22512 3.41555 Cu 0.0 0.0 0.420709 0.264325 -0.363079
atom -4.56337 10.92721 9.48931 Cu 0.0 0.0 0.128352 0.172190 0.363399
atom 8.59634 5.26607 8.44365 Cu 0.0 0.0 0.117417 0.125393 -0.179379
atom 5.15514 11.84199 10.64116 Cu 0.0 0.0 0.109046 -0.110319 0.168850
atom 2.30589 7.50871 6.88308 Cu 0.0 0.0 0.134207 0.270430 0.601974
atom 5.99414 0.87192 3.75606 Cu 0.0 0.0 -0.085932 0.296904 0.052888
atom 7.00396 5.08458 5.59822 Cu 0.0 0.0 0.314031 0.912890 0.054626
atom 7.80848 3.11494 6.96633 Cu 0.0 0.0 -0.100581 -0.088051 0.263841
atom -1.02740 9.38861 11.72761 Cu 0.0 0.0 0.236987 -0.119668 0.095589
atom 2.00809 9.39549 5.10170 Cu 0.0 0.0 -0.548988 0.332572 0.480892
atom 10.09934 3.43313 0.94197 Cu 0.0 0.0 0.022636 0.018873 -0.564261
atom 2.45244 2.61084 1.40239 Cu 0.0 0.0 -0.541073 0.259991 -0.650077
atom 10.57467 8.14407 4.58981 Cu 0.0 0.0 -0.655723 -0.084954 -0.156114
atom 6.82726 9.78665 10.60409 Cu 0.0 0.0 0.000141 -0.138402 0.672423
atom 0.03216 2.55021 8.45018 Cu 0.0 0.0 -0.083821 -0.327760 -0.030146
atom -2.39539 1.25518 8.99893 Cu 0.0 0.0 0.200628 -0.114802 -0.541407
atom 9.12064 7.30727 10.09689 Cu 0.0 0.0 -0.122881 -0.324841 0.062112
atom 11.64352 11.24278 3.75973 Cu 0.0 0.0 0.515935 -0.057406 0.184501
atom 0.95612 4.13915 3.15448 Cu 0.0 0.0 -0.236508 -0.025230 -0.070255
energy -561.741771
charge 0.0
end
begin
comment source_file_name=OUTCAR_6_108
lattice 15.624557320 0.000000000 0.000000000
lattice 0.000000000 12.179079050 0.000000000
lattice -6.138072559 0.000000000 12.392208625
atom 9.89075 0.86959 10.71865 S 0.0 0.0 -0.236235 0.593864 -0.216800
atom -3.56031 7.38190 8.02227 S 0.0 0.0 -0.297618 0.191916 -0.125859
atom -0.33678 11.09994 1.90136 S 0.0 0.0 0.502388 0.022474 0.691235
atom 13.02410 5.32513 4.63522 S 0.0 0.0 0.117798 -0.590981 -0.963398
atom 12.74299 0.86966 4.88868 S 0.0 0.0 -0.498701 0.930931 -1.005796
atom -0.19202 6.96808 1.71540 S 0.0 0.0 0.374316 0.276909 0.137312
atom -3.36821 11.39258 7.87328 S 0.0 0.0 0.229297 -0.091058 -0.471519
atom 9.74630 4.98057 10.95779 S 0.0 0.0 0.352311 -0.759461 -0.225223
atom 8.93916 1.22388 6.57190 S 0.0 0.0 0.648530 0.251043 0.516068
atom -2.56525 6.70122 11.95174 S 0.0 0.0 0.051164 0.622031 0.472091
atom 0.40915 11.38982 6.28948 S 0.0 0.0 -0.159370 -0.880248 -0.487897
atom 11.94573 4.93507 0.36019 S 0.0 0.0 -0.037649 0.199834 -1.014605
atom 12.04229 1.04683 0.17732 S 0.0 0.0 -0.344214 0.219087 0.326350
atom 0.31631 7.54515 5.77695 S 0.0 0.0 -0.376902 -0.186683 0.292859
atom -2.90764 11.07709 12.30470 S 0.0 0.0 -0.537536 -0.366620 -0.772097
atom 9.09282 5.29234 6.48790 S 0.0 0.0 1.063038 -0.326730 0.478156
atom 3.40334 1.09866 7.36317 S 0.0 0.0 0.014055 0.806185 -0.448344
atom 2.82895 7.32368 11.28464 S 0.0 0.0 1.368698 -0.246700 0.438205
atom 6.02325 11.58479 5.02269 S 0.0 0.0 0.192328 0.219981 -0.739654
atom 6.42026 5.58258 1.32925 S 0.0 0.0 -0.395231 -0.377925 -0.087567
atom 6.49349 0.96209 1.18963 S 0.0 0.0 0.222522 0.720071 -0.220677
atom 5.80333 7.44154 4.62442 S 0.0 0.0 1.467687 0.198727 0.483395
atom 3.13668 11.31573 11.13029 S 0.0 0.0 0.188279 0.071855 -0.403744
atom 3.53157 5.43988 7.06785 S 0.0 0.0 0.230477 -0.623770 0.286970
atom -0.35273 1.29488 9.39036 S 0.0 0.0 -0.074174 -0.125936 -0.038070
atom 7.18772 7.19494 8.97260 S 0.0 0.0 0.180517 0.026390 -0.573754
atom 9.87321 11.56706 2.74039 S 0.0 0.0 -0.857895 0.211815 -0.538675
atom 2.79132 5.15871 3.36302 S 0.0 0.0 0.196480 0.065717 -0.703214
atom 2.48346 1.05348 3.54136 S 0.0 0.0 0.946222 0.836349 0.439936
atom 9.77313 7.57476 2.64995 S 0.0 0.0 0.029830 -1.584547 0.114777
atom 6.35578 11.43481 9.41723 S 0.0 0.0 -0.184784 0.653087 -0.786414
atom 0.05051 5.64191 9.18320 S 0.0 0.0 -1.206743 -1.162388 -0.772767
atom 6.44564 3.59981 8.93804 S 0.0 0.0 0.145736 -0.466407 0.472286
atom -0.36459 9.55327 9.80560 S 0.0 0.0 0.904981 0.829809 -1.951293
atom 3.18171 9.25639 3.37090 S 0.0 0.0 -0.954805 0.346434 -0.860674
atom 9.75627 3.06498 2.93181 S 0.0 0.0 -0.113758 -0.279101 0.216648
atom 6.05746 3.21852 4.15803 S 0.0 0.0 0.477706 -0.241225 0.540164
atom 6.51806 9.49463 1.29584 S 0.0 0.0 -0.130353 -0.260424 -0.295919
atom 3.55187 9.18160 7.75439 S 0.0 0.0 0.195927 -0.335328 0.335707
atom 2.92017 3.31580 10.69732 S 0.0 0.0 -0.167268 -0.336100 -0.446291
atom 0.31522 3.06403 6.03900 S 0.0 0.0 0.085963 0.378164 -0.160969
atom 12.32049 9.18848 0.06802 S 0.0 0.0 -0.210490 -0.436867 0.315641
atom 9.32195 9.24611 5.89293 S 0.0 0.0 -0.064920 -0.430167 1.081892
atom -2.79787 3.14127 12.13964 S 0.0 0.0 0.529888 0.150589 1.100239
atom 0.15326 2.61722 2.10146 S 0.0 0.0 -1.509077 0.515236 -0.201298
atom 12.67035 9.01555 4.27751 S 0.0 0.0 0.233547 0.317566 0.098186
atom 9.54022 9.13077 11.05495 S 0.0 0.0 -0.241032 -0.390014 0.633490
atom -3.42200 3.34209 7.90966 S 0.0 0.0 0.896942 0.070188 0.191131
atom -1.37319 3.44291 3.62735 Cu 0.0 0.0 0.032270 -0.155192 0.178983
atom 1.07217 11.25469 3.96928 Cu 0.0 0.0 -0.546525 -0.279318 -0.137080
atom -2.53857 9.50033 8.87210 Cu 0.0 0.0 0.709110 -0.052647 0.246452
atom 8.36243 2.69575 9.97585 Cu 0.0 0.0 -0.120268 -0.200055 0.203560
atom 5.88915 1.40297 10.39764 Cu 0.0 0.0 0.453752 0.120221 -0.696263
atom 1.20762 7.25618 9.90018 Cu 0.0 0.0 -0.198458 0.980634 -0.204350
atom 3.90345 11.12234 4.18093 Cu 0.0 0.0 0.278782 1.008015 -0.155550
atom 9.73288 5.23569 3.08502 Cu 0.0 0.0 0.202850 1.192726 0.054951
atom 8.53168 1.30428 2.16605 Cu 0.0 0.0 0.137345 -0.023262 -0.265029
atom 3.80623 7.22631 3.70760 Cu 0.0 0.0 -0.219067 -0.903061 -0.241652
atom 1.18025 12.06809 10.13103 Cu 0.0 0.0 -0.061420 0.364967 0.334885
atom 2.88762 3.57335 8.35946 Cu 0.0 0.0 0.573471 -0.110581 0.399129
atom 5.77733 3.32767 1.11645 Cu 0.0 0.0 -0.253390 -0.639666 -0.062634
atom 10.29469 0.69164 4.88179 Cu 0.0 0.0 0.508935 0.077186 -0.079136
atom 4.14141 9.21054 11.29333 Cu 0.0 0.0 -0.095430 -0.217870 0.417554
atom 2.02310 6.26576 5.14066 Cu 0.0 0.0 -0.022572 -0.567194 0.230638
atom -3.58316 1.05274 11.89893 Cu 0.0 0.0 -0.315855 -0.020495 -0.334533
atom 7.36472 6.42711 5.90427 Cu 0.0 0.0 -0.686462 0.625180 -0.525536
atom 13.60217 9.76897 2.24664 Cu 0.0 0.0 -0.438918 -0.335261 0.237930
atom -0.66989 5.39234 5.76535 Cu 0.0 0.0 0.212794 0.060264 -0.022974
atom 1.14471 1.66256 7.72996 Cu 0.0 0.0 -0.049823 0.244333 0.515953
atom 13.44259 7.25717 0.71848 Cu 0.0 0.0 -0.170634 0.271201 0.101703
atom 8.32492 9.61652 8.03735 Cu 0.0 0.0 -0.243768 -0.374760 0.081974
atom -4.00483 6.34274 10.28917 Cu 0.0 0.0 -0.140905 -0.202524 -0.213438
atom 2.38524 2.70601 1.68050 Cu 0.0 0.0 -0.078609 -0.273888 -0.003881
atom 11.02820 5.23731 5.42291 Cu 0.0 0.0 -0.374172 0.045292 0.120036
atom -3.57278 8.78594 11.75544 Cu 0.0 0.0 -0.120113 -0.013979 -0.023119
atom 10.23774 2.47740 8.42932 Cu 0.0 0.0 0.119225 -0.466315 -0.213476
atom -1.87407 2.73456 6.04800 Cu 0.0 0.0 -0.590790 -0.319146 0.256777
atom 2.03491 6.72843 1.28193 Cu 0.0 0.0 0.075369 0.051151 -0.103746
atom -0.85831 9.69200 4.91078 Cu 0.0 0.0 0.300048 0.265827 0.021381
atom 7.76874 4.50094 11.82521 Cu 0.0 0.0 -0.096214 0.381836 -0.022045
atom 8.04004 3.30171 7.37202 Cu 0.0 0.0 -0.175200 -0.262907 -0.173432
atom 6.35200 10.03140 3.33750 Cu 0.0 0.0 -0.023838 0.330601 0.889407
atom -0.12665 8.86906 7.51643 Cu 0.0 0.0 0.176885 0.332875 0.811314
atom 13.52604 2.30923 1.20998 Cu 0.0 0.0 0.538022 0.537113 0.054505
atom 1.54757 2.53424 12.22771 Cu 0.0 0.0 -0.433438 -0.099805 0.085603
atom 4.35237 9.07721 5.54460 Cu 0.0 0.0 0.149381 -0.336235 0.205385
atom 7.76148 10.87600 0.19222 Cu 0.0 0.0 -0.043602 0.141369 0.126394
atom 5.16996 4.50404 5.75698 Cu 0.0 0.0 -0.371287 -0.322127 -0.529803
atom 7.08901 1.75917 5.54092 Cu 0.0 0.0 -0.447674 -0.124136 -0.337315
atom 10.84829 6.95217 0.60953 Cu 0.0 0.0 -0.025001 0.406650 0.336150
atom 5.94452 11.17601 7.16831 Cu 0.0 0.0 0.905722 -0.062325 0.935534
atom 0.04671 5.45156 11.46530 Cu 0.0 0.0 0.058156 0.014612 0.019203
atom -0.95340 2.27889 11.26257 Cu 0.0 0.0 -0.158629 -0.038269 0.175703
atom 5.60716 8.51970 8.41711 Cu 0.0 0.0 -0.295288 0.299590 -0.117977
atom 8.99139 9.50872 2.14928 Cu 0.0 0.0 -0.613867 0.836968 0.010307
atom 4.00008 3.11192 3.53135 Cu 0.0 0.0 -0.823703 0.286186 -0.024177
atom 9.57356 10.97420 9.85346 Cu 0.0 0.0 -1.741454 -0.138031 -0.029070
atom 8.69931 6.87797 10.77548 Cu 0.0 0.0 -0.030464 0.740950 -0.462363
atom -1.82571 11.67979 6.19014 Cu 0.0 0.0 0.473173 -0.257845 0.457479
atom 12.84256 5.01962 2.27801 Cu 0.0 0.0 0.079537 0.077972 0.974481
atom 11.68696 11.13470 0.98255 Cu 0.0 0.0 -0.026732 0.001637 0.327354
atom 1.17372 8.46456 3.89306 Cu 0.0 0.0 0.077818 0.040641 -0.163921
atom -3.87202 11.42151 9.95096 Cu 0.0 0.0 1.319924 0.357469 1.235785
atom 9.68467 7.46935 7.36444 Cu 0.0 0.0 0.078024 -0.264603 0.039384
atom -3.10322 3.62406 10.13831 Cu 0.0 0.0 -0.261249 0.232049 -1.631392
atom 10.84083 8.63160 9.43807 Cu 0.0 0.0 -0.088162 -0.163325 -0.400708
atom -1.25158 7.17701 3.69327 Cu 0.0 0.0 0.055177 0.315564 -0.125943
atom 1.51289 3.47275 4.16809 Cu 0.0 0.0 -0.444387 0.076901 -0.019247
atom 1.76285 10.20731 1.42162 Cu 0.0 0.0 -0.408881 -0.388316 0.438770
atom 7.30573 7.69783 0.33245 Cu 0.0 0.0 0.108351 -0.385220 -0.026558
atom 3.65987 11.13684 6.74128 Cu 0.0 0.0 -1.179376 0.229751 -0.026927
atom 3.76984 5.02177 11.72621 Cu 0.0 0.0 -0.220619 0.597596 -0.048553
atom 1.83077 0.86470 5.61241 Cu 0.0 0.0 0.116682 -0.349380 -0.072445
atom 5.82315 5.65678 7.67179 Cu 0.0 0.0 0.064942 0.548441 1.507431
atom 5.43761 1.12690 3.17739 Cu 0.0 0.0 0.000365 -0.329904 0.087793
atom 4.04895 4.94395 1.39556 Cu 0.0 0.0 -0.464744 0.534966 -0.089712
atom 15.16889 0.49831 0.41258 Cu 0.0 0.0 0.170550 0.393024 -0.463366
atom 7.51493 6.69612 3.20370 Cu 0.0 0.0 0.282234 0.066918 -0.112843
atom 5.35349 2.01782 7.89904 Cu 0.0 0.0 -0.158781 0.217114 -0.015548
atom 1.16432 4.79654 7.26598 Cu 0.0 0.0 -0.190800 0.130114 0.180039
atom 3.84217 12.14680 9.15877 Cu 0.0 0.0 0.083567 -0.230893 0.469923
atom 1.98914 9.95631 9.43282 Cu 0.0 0.0 0.114316 -0.866496 -0.318645
atom 7.07275 9.39202 5.69865 Cu 0.0 0.0 -0.428267 -0.566144 -0.091932
atom 7.85087 4.04852 2.12678 Cu 0.0 0.0 0.377562 -0.085129 0.126739
atom 13.94289 0.57070 2.97032 Cu 0.0 0.0 0.088071 -0.338605 0.279562
atom 11.82096 7.04200 3.45863 Cu 0.0 0.0 -0.407350 -0.041524 0.099335
atom 10.35633 10.97217 6.87963 Cu 0.0 0.0 -0.424290 -0.099466 0.097915
atom -2.11414 5.63797 8.21348 Cu 0.0 0.0 0.087279 -0.315459 0.534756
atom 3.64329 1.39094 11.69682 Cu 0.0 0.0 0.401258 -0.237163 -0.302114
atom 2.25137 7.42520 7.26537 Cu 0.0 0.0 -0.069784 0.077699 0.226892
atom 5.24781 11.33313 0.63269 Cu 0.0 0.0 0.491639 -0.038621 0.129458
atom 7.94452 4.15648 4.88818 Cu 0.0 0.0 0.169798 0.250102 -0.254658
atom 8.04792 0.11428 8.26070 Cu 0.0 0.0 -0.180397 -0.066917 -0.014428
atom -0.97149 8.35964 11.36772 Cu 0.0 0.0 -0.795695 -1.322630 0.996862
atom -2.49356 8.82480 6.55901 Cu 0.0 0.0 -0.366766 -0.076812 -0.401297
atom 10.93070 2.98992 0.96170 Cu 0.0 0.0 -0.000289 -0.300099 0.271562
atom 3.04794 0.05850 1.81271 Cu 0.0 0.0 0.553369 -0.132887 -0.516744
atom 8.73366 10.92259 4.63652 Cu 0.0 0.0 -0.018813 0.352731 -0.823722
atom 7.17114 9.75235 10.52841 Cu 0.0 0.0 0.576651 -0.526726 -0.150370
atom 0.47463 3.43010 9.55144 Cu 0.0 0.0 0.345090 0.282222 0.121506
atom -2.56999 1.18170 8.54373 Cu 0.0 0.0 0.127874 0.653995 -0.065599
atom 9.41838 4.85095 8.75760 Cu 0.0 0.0 0.067639 0.379176 0.093687
atom 11.75409 11.09810 3.71104 Cu 0.0 0.0 0.732038 -0.132961 0.253485
atom -0.32548 4.80321 1.72231 Cu 0.0 0.0 0.419310 -0.603224 -0.036576
energy -560.361514
charge 0.0
end
begin
comment source_file_name=OUTCAR_6_117
lattice 15.590426068 0.000000000 0.000000000
lattice 0.000000000 12.152474314 0.000000000
lattice -6.124664173 0.000000000 12.365138315
atom 9.87583 0.72573 10.89812 S 0.0 0.0 -0.103230 1.069651 -0.134325
atom -3.59476 7.25274 8.31718 S 0.0 0.0 0.319076 -0.359121 0.743957
atom -0.04453 11.35136 1.60365 S 0.0 0.0 -0.318301 -0.285213 -0.275662
atom 12.54658 5.55408 4.26068 S 0.0 0.0 0.247331 -0.009356 -1.278018
atom 12.64364 1.41845 4.26281 S 0.0 0.0 0.360005 0.591246 -0.488483
atom -0.39222 7.13348 1.82277 S 0.0 0.0 0.592497 0.203758 0.304372
atom -3.33398 11.65280 7.94998 S 0.0 0.0 -0.046456 -0.864229 -0.200171
atom 9.76883 4.75122 10.84802 S 0.0 0.0 -0.568813 -0.360570 -0.601469
atom 9.20919 1.19447 6.53652 S 0.0 0.0 -0.063997 0.542399 -0.551088
atom -2.83990 7.05472 11.90197 S 0.0 0.0 0.074340 0.726232 0.429158
atom 0.10034 11.12123 5.80558 S 0.0 0.0 0.693152 0.967509 1.573627
atom 12.05865 5.42245 0.15090 S 0.0 0.0 -0.005216 -0.064823 0.591861
atom 5.98017 1.26448 12.20416 S 0.0 0.0 -0.041939 -0.328534 0.017176
atom -0.01370 7.08958 5.90967 S 0.0 0.0 -0.127715 -0.398236 0.608652
atom -2.85626 10.90853 12.04336 S 0.0 0.0 -0.854673 -0.322929 -0.475137
atom 8.68570 5.17786 6.30474 S 0.0 0.0 0.522381 -0.000617 -0.300714
atom 3.18799 1.38592 7.76209 S 0.0 0.0 -0.194331 -0.339452 -0.733105
atom 2.83632 7.26526 11.17058 S 0.0 0.0 0.166006 -0.309623 0.159412
atom 6.01408 11.38648 4.70482 S 0.0 0.0 0.978988 -0.243598 0.192810
atom 6.58813 5.36553 1.04964 S 0.0 0.0 -0.751800 -0.111761 0.618048
atom 6.58982 1.12922 1.18185 S 0.0 0.0 -0.368215 -0.265120 0.337082
atom 5.95214 7.23248 4.99179 S 0.0 0.0 -0.291518 0.873634 -0.497107
atom 2.69918 10.59997 11.07013 S 0.0 0.0 0.343208 0.546882 0.338102
atom 3.70338 5.22286 7.78038 S 0.0 0.0 -0.944508 -0.125933 -0.520136
atom 0.07541 0.87985 9.58243 S 0.0 0.0 0.711442 -0.100208 -0.923294
atom 6.42934 7.27663 8.59544 S 0.0 0.0 -0.495867 -0.741549 1.154220
atom 10.07804 11.65919 2.55524 S 0.0 0.0 0.257914 -0.257515 0.068332
atom 2.69713 5.14672 3.50226 S 0.0 0.0 0.026037 0.185388 -0.328706
atom 3.08935 0.92756 3.56274 S 0.0 0.0 -0.890016 0.452045 0.259027
atom 9.64746 7.50208 2.79449 S 0.0 0.0 0.169887 0.247904 0.250646
atom 6.52103 10.82295 8.61840 S 0.0 0.0 0.170185 0.594626 0.233921
atom -0.30469 5.08016 9.87263 S 0.0 0.0 0.769273 -0.698464 -0.590558
atom 6.77541 2.98065 8.74371 S 0.0 0.0 -1.283497 -0.029035 -0.348337
atom -0.13759 9.09686 9.30966 S 0.0 0.0 0.099631 -0.410761 0.075561
atom 2.55926 9.59077 3.48474 S 0.0 0.0 0.863735 0.031501 0.719300
atom 9.28541 3.35511 2.40321 S 0.0 0.0 0.603354 -0.061214 0.067810
atom 6.03569 2.91589 4.70605 S 0.0 0.0 0.189944 0.594063 0.172699
atom 6.35465 9.23059 0.94509 S 0.0 0.0 0.535239 0.271264 0.524659
atom 3.05643 9.11995 7.08068 S 0.0 0.0 0.567097 -0.295655 -0.625579
atom 2.95991 2.93402 11.35155 S 0.0 0.0 1.071405 0.651270 -0.554452
atom 0.18048 3.41502 5.68687 S 0.0 0.0 0.384600 -0.529489 0.419188
atom 12.32408 9.26587 0.57127 S 0.0 0.0 0.433722 1.301119 0.164050
atom 9.43002 9.16702 6.50398 S 0.0 0.0 -0.256599 -0.054431 0.683706
atom -2.62578 3.06685 11.79800 S 0.0 0.0 -0.240121 0.372020 0.619817
atom -0.04290 3.14787 1.59548 S 0.0 0.0 0.970254 0.089043 -0.259683
atom 12.98623 9.17263 4.67240 S 0.0 0.0 0.152440 0.575905 0.302111
atom 9.53227 8.91491 10.30591 S 0.0 0.0 -0.685112 1.038407 0.295325
atom -3.13225 3.48488 7.90077 S 0.0 0.0 -0.014811 1.301442 0.094384
atom 9.59481 0.06700 4.65342 Cu 0.0 0.0 0.116751 -0.064238 -0.164732
atom 0.91039 8.99072 2.35376 Cu 0.0 0.0 -1.176160 -0.677189 -0.677117
atom -2.21893 9.78821 9.01786 Cu 0.0 0.0 -0.593941 0.121961 -0.299343
atom 8.37207 2.37395 9.98311 Cu 0.0 0.0 1.194117 -0.603994 0.721221
atom 4.93516 0.23853 8.26135 Cu 0.0 0.0 0.446226 -0.298511 0.225435
atom 0.70476 7.31121 10.33450 Cu 0.0 0.0 0.209507 -0.210476 -0.067451
atom 3.86738 11.03035 4.71473 Cu 0.0 0.0 -0.576510 0.170405 -0.462694
atom 7.89124 6.15898 2.74528 Cu 0.0 0.0 -0.083416 -0.235114 -0.044081
atom 8.60080 1.18897 2.50596 Cu 0.0 0.0 -0.342912 0.267708 -0.171332
atom 4.91751 5.93606 3.04608 Cu 0.0 0.0 0.585264 -0.301841 0.431588
atom -0.18604 11.00069 8.11343 Cu 0.0 0.0 0.629607 0.595878 -0.019950
atom 7.46381 4.58557 11.16522 Cu 0.0 0.0 0.431971 -0.055251 -0.369768
atom 5.43783 3.17330 0.58628 Cu 0.0 0.0 0.751054 -0.134144 0.145780
atom 7.79346 10.21145 5.36072 Cu 0.0 0.0 -0.210713 0.346441 0.087814
atom 4.44456 8.65607 11.93527 Cu 0.0 0.0 -0.621723 -0.044484 -0.542199
atom 3.19521 3.19368 8.99586 Cu 0.0 0.0 0.301098 0.373849 0.640625
atom -3.22247 0.98810 11.45025 Cu 0.0 0.0 -0.778177 -0.055368 0.462538
atom 10.02141 6.87428 6.96463 Cu 0.0 0.0 -0.466054 -0.395813 0.092533
atom 8.34192 9.26032 12.20548 Cu 0.0 0.0 -0.107000 0.040393 -0.361411
atom -0.77776 5.23806 4.74389 Cu 0.0 0.0 -0.445008 -0.012097 -0.053846
atom -0.36609 1.17627 5.25964 Cu 0.0 0.0 0.140315 -0.025360 -0.102878
atom 13.09292 7.32370 1.23212 Cu 0.0 0.0 -0.140317 -0.422094 -0.368668
atom 10.14531 11.26053 6.98040 Cu 0.0 0.0 -0.011902 -0.397193 -0.275866
atom -3.76666 5.10667 11.65684 Cu 0.0 0.0 -0.055709 -0.506695 0.140251
atom 14.05497 0.06633 0.03914 Cu 0.0 0.0 -0.030520 -0.035995 -0.000693
atom 11.86066 8.41714 6.51012 Cu 0.0 0.0 0.408466 0.739350 -0.581657
atom 8.67005 11.27913 10.07961 Cu 0.0 0.0 -0.320749 -0.635851 -0.423068
atom 12.32437 4.14522 5.78607 Cu 0.0 0.0 0.341482 -0.504738 0.648137
atom -1.23479 2.91699 3.35672 Cu 0.0 0.0 -0.659016 -0.454841 0.956127
atom 1.00522 7.50527 0.07590 Cu 0.0 0.0 0.104719 -0.094210 0.230070
atom -1.99280 10.56364 6.50865 Cu 0.0 0.0 -0.309346 -0.304530 -0.349435
atom 13.69559 2.74277 0.61079 Cu 0.0 0.0 -0.740031 -0.331046 -0.172883
atom 9.22275 4.45011 4.25023 Cu 0.0 0.0 -0.086758 0.039734 0.653019
atom 2.35601 11.26059 1.86454 Cu 0.0 0.0 0.179650 0.453328 -0.213761
atom -1.37705 7.77102 7.59437 Cu 0.0 0.0 0.019134 0.081708 -0.016318
atom 5.24701 2.62007 10.44240 Cu 0.0 0.0 0.062540 0.190268 0.046835
atom 1.12658 1.70875 11.43506 Cu 0.0 0.0 -0.028160 -0.375365 0.233956
atom 5.05132 7.90735 7.05512 Cu 0.0 0.0 -0.684530 -0.018753 -0.767936
atom 0.89312 11.42172 12.24069 Cu 0.0 0.0 0.401105 -0.161167 -0.065176
atom 4.80786 2.67143 6.46370 Cu 0.0 0.0 -0.695051 -0.144742 0.568310
atom 3.89943 3.26604 3.96128 Cu 0.0 0.0 -0.090352 -0.349887 -0.112373
atom 8.40738 8.35514 1.17016 Cu 0.0 0.0 -0.034714 0.043088 -0.120182
atom 5.27885 10.37154 6.67410 Cu 0.0 0.0 -0.250277 0.126462 -0.097865
atom 1.25782 4.50206 11.46215 Cu 0.0 0.0 -0.123207 -0.331732 0.001009
atom -0.82658 2.74934 10.24214 Cu 0.0 0.0 -0.521650 0.541842 -0.060889
atom 8.08190 8.58671 8.41195 Cu 0.0 0.0 1.144309 0.589912 -0.271331
atom 9.54522 9.77145 3.53392 Cu 0.0 0.0 0.090725 -0.229175 -0.557742
atom 2.28363 4.17761 6.17525 Cu 0.0 0.0 0.204788 0.502059 0.376952
atom 10.19798 0.92426 8.58233 Cu 0.0 0.0 -0.355278 0.500551 0.641861
atom -1.82880 6.56791 9.80804 Cu 0.0 0.0 -0.763870 0.542832 0.019441
atom 2.22932 1.80515 5.77201 Cu 0.0 0.0 -0.104699 -0.565560 -0.809516
atom 10.97333 3.53351 0.80184 Cu 0.0 0.0 -0.205191 -0.235996 0.165607
atom 11.80272 1.24535 2.06890 Cu 0.0 0.0 -0.487391 0.130022 0.150697
atom 3.00571 6.73402 1.85671 Cu 0.0 0.0 -0.600708 0.065040 -0.335741
atom -1.61013 11.91303 10.25029 Cu 0.0 0.0 0.031080 -0.582186 0.281713
atom 7.68284 0.54805 8.04037 Cu 0.0 0.0 -0.278114 -0.190353 0.073341
atom 10.89265 5.16226 8.86992 Cu 0.0 0.0 0.358718 -0.100269 -0.118323
atom -3.93790 8.51324 10.43345 Cu 0.0 0.0 0.580563 -0.236735 -0.083439
atom -0.29568 10.93883 3.75567 Cu 0.0 0.0 0.128843 -0.663979 -0.496995
atom 13.27170 4.82049 2.13767 Cu 0.0 0.0 -0.135176 0.306625 -0.043096
atom 7.29394 1.14258 4.96414 Cu 0.0 0.0 0.169748 -0.388981 0.298195
atom 5.23011 7.33966 0.78583 Cu 0.0 0.0 0.053700 -0.376640 -0.113537
atom 2.45545 9.49932 9.10105 Cu 0.0 0.0 -0.246187 0.300136 0.543202
atom 3.64948 5.17028 11.54319 Cu 0.0 0.0 0.107048 0.070810 -0.128099
atom 2.44681 11.30359 7.00374 Cu 0.0 0.0 -0.025781 0.254965 -0.101382
atom 6.39355 6.84172 10.86966 Cu 0.0 0.0 -0.213037 0.417160 -0.537863
atom 6.27812 9.95906 3.03080 Cu 0.0 0.0 -0.116200 0.123076 -0.099084
atom 3.31501 4.07767 1.56361 Cu 0.0 0.0 -0.315375 1.401912 0.111342
atom 3.38122 1.81596 1.55210 Cu 0.0 0.0 0.090393 -1.319310 -0.168675
atom 8.57339 7.96150 4.77577 Cu 0.0 0.0 -0.366746 -0.849091 -0.112655
atom 4.38742 12.02636 11.50090 Cu 0.0 0.0 -0.175537 -0.153927 -0.249788
atom 1.84360 5.20187 9.08090 Cu 0.0 0.0 -0.156068 0.456102 -0.271046
atom 5.91895 5.09469 8.77448 Cu 0.0 0.0 0.125797 -0.231646 0.083385
atom 4.30660 7.72042 9.50751 Cu 0.0 0.0 0.179000 -0.188776 0.056495
atom 4.21376 8.31056 3.87950 Cu 0.0 0.0 0.870269 -0.676225 0.047322
atom 6.67121 3.81184 2.80464 Cu 0.0 0.0 0.090315 0.428700 -0.556452
atom 13.93805 0.39667 2.72421 Cu 0.0 0.0 0.029497 0.250155 -0.018355
atom -0.92222 7.90297 3.96300 Cu 0.0 0.0 0.374962 -0.074293 -0.363626
atom -4.33044 11.18292 9.90598 Cu 0.0 0.0 0.254680 -0.281597 0.362052
atom 8.47752 4.52744 8.41032 Cu 0.0 0.0 0.064395 -0.005497 0.308827
atom 2.57199 0.02115 9.51645 Cu 0.0 0.0 -0.228133 0.148818 -0.092243
atom 1.97386 6.68146 6.86444 Cu 0.0 0.0 0.408201 -0.291500 0.279006
atom 4.78898 11.72322 0.93063 Cu 0.0 0.0 0.794492 0.883178 0.446575
atom 6.57658 5.15737 4.99169 Cu 0.0 0.0 0.233445 -0.519434 0.053256
atom 10.43995 3.29143 7.08732 Cu 0.0 0.0 -1.086618 -0.277490 -0.117102
atom -0.90918 9.66235 11.41394 Cu 0.0 0.0 -0.266128 -0.014263 -0.318448
atom 1.41159 8.57133 5.21934 Cu 0.0 0.0 0.314563 0.646491 -0.433158
atom 11.50956 3.52153 3.42247 Cu 0.0 0.0 -0.139381 -0.305530 0.038078
atom 0.79275 1.23641 2.51953 Cu 0.0 0.0 0.653530 -0.079349 0.244066
atom 11.59329 7.62853 4.01148 Cu 0.0 0.0 -0.511545 -0.275537 -0.334251