################################################################################
# Symmetry function scaling data.
################################################################################
# Col  Name     Description
################################################################################
# 1    e_index  Element index.
# 2    sf_index Symmetry function index.
# 3    sf_min   Symmetry function minimum.
# 4    sf_max   Symmetry function maximum.
# 5    sf_mean  Symmetry function mean.
# 6    sf_sigma Symmetry function sigma.
#########################################################################################################################
#        1          2                        3                        4                        5                        6
#  e_index   sf_index                   sf_min                   sf_max                  sf_mean                 sf_sigma
#########################################################################################################################
         1          1   1.5913246362740890E-01   2.7498027860021046E-01   2.3411070974364162E-01   4.1533231436381934E-02
         1          2   3.8208348960582011E-01   6.1596767565978183E-01   5.4365345214195337E-01   6.2168750346181266E-02
         1          3   0.0000000000000000E+00   2.0337444777209396E-01   1.8576859898018071E-02   4.4625560493899021E-02
         1          4   0.0000000000000000E+00   1.5164101051381235E-01   1.3203343352844459E-03   1.0211157463807744E-02
         1          5   1.5391381116917166E-01   2.6630566279985779E-01   2.2663568141082335E-01   4.0209778156836393E-02
         1          6   1.4886636102567033E-01   2.5790477787348365E-01   2.1939940663111937E-01   3.8928536384299980E-02
         1          7   1.4398449479386538E-01   2.4976898364574004E-01   2.1239425702337048E-01   3.7688158517680648E-02
         1          8   0.0000000000000000E+00   1.9406211706928167E-01   1.7648911217202110E-02   4.2520645795885346E-02
         1          9   1.3926277851637014E-01   2.4188991274332780E-01   2.0561284802157034E-01   3.6487340018409600E-02
         1         10   3.5659033473577800E-01   5.7617043647213184E-01   5.0797436473966617E-01   5.7976950050853085E-02
         1         11   0.0000000000000000E+00   1.4539600862621604E-01   1.2080612335982977E-03   9.5956010246851711E-03
         1         12   1.3469595662418768E-01   2.3425946197908221E-01   1.9904803107952371E-01   3.5324818033081816E-02
         1         13   0.0000000000000000E+00   1.8809201699275113E-01   1.7058393333331711E-02   4.1172309442739349E-02
         1         14   3.3865933443703955E-01   5.4816761897885724E-01   4.8287365211335448E-01   5.5044887285242698E-02
         1         15   0.0000000000000000E+00   1.7947947129709610E-01   1.6212369520148557E-02   3.9228848324466881E-02
         1         16   0.0000000000000000E+00   1.3940819342211608E-01   1.1079029290115836E-03   9.0238606983715688E-03
         1         17   3.2167867130268979E-01   5.2163502844899057E-01   4.5909660848294337E-01   5.2279563377814288E-02
         1         18   0.0000000000000000E+00   1.7126129487398756E-01   1.5411368048689429E-02   3.7376367464040744E-02
         1         19   0.0000000000000000E+00   1.3226899923747690E-01   9.9733208701786565E-04   8.3646228125886356E-03
         1         20   3.0041860250661334E-01   4.8838867529404617E-01   4.2931449331560534E-01   4.8831457141969466E-02
         1         21   0.0000000000000000E+00   1.6341942908701504E-01   1.4652596905168125E-02   3.5610690618752175E-02
         1         22   2.8062447123113465E-01   4.5739845518552941E-01   4.0156881040680370E-01   4.5633685713583956E-02
         1         23   0.0000000000000000E+00   1.2549540833880571E-01   9.0060796845390961E-04   7.7606786257876439E-03
         1         24   0.0000000000000000E+00   1.1782340194594421E-01   7.9983843493257442E-04   7.1008688199004182E-03
         1         25   4.8080975477891362E-05   1.4454236521537357E-04   1.0606138550262831E-04   3.0372661949925568E-05
         1         26   7.0914606025698497E-04   1.6744510195351690E-03   1.3424921537840402E-03   2.7021554815884620E-04
         1         27   0.0000000000000000E+00   5.4853339679432496E-04   4.8918824234109643E-05   1.1979835904367966E-04
         1         28   7.1458123350106911E-04   2.8988424591760804E-03   2.0780582515160153E-03   5.2414012393671374E-04
         1         29   0.0000000000000000E+00   1.8148844374031689E-03   1.5688952598208675E-04   3.8606024791623862E-04
         1         30   0.0000000000000000E+00   2.2849303786486581E-03   9.8350339606152324E-06   1.0715779914260924E-04
         1         31   1.4892822650354744E-04   4.3373787604534034E-04   3.1815667234462886E-04   9.1065360531956851E-05
         1         32   4.0219506797962226E-03   9.2487775728862312E-03   7.4767715518134336E-03   1.4678002695749002E-03
         1         33   0.0000000000000000E+00   3.0305462630596833E-03   2.7169254790767488E-04   6.5773132788470132E-04
         1         34   7.5172170455342397E-04   3.0273633797592695E-03   2.1731243208738043E-03   5.4921772834580788E-04
         1         35   0.0000000000000000E+00   1.8533362398174024E-03   1.6464081695290772E-04   3.9447357279410100E-04
         1         36   0.0000000000000000E+00   2.2184622784054632E-03   1.1341545557416343E-05   1.0837902747683792E-04
         1         37   1.1143704929203174E-04   2.8763385671683813E-04   2.2584657344904279E-04   4.8345027630844206E-05
         1         38   0.0000000000000000E+00   9.3700521240144783E-05   8.2928224801076323E-06   2.0450148930311655E-05
         1         39   3.5348159825506734E-04   1.4369216585712827E-03   1.0291543921906198E-03   2.5961292527450176E-04
         1         40   0.0000000000000000E+00   9.0398962706883068E-04   7.7629549460939162E-05   1.9220121514820071E-04
         1         41   0.0000000000000000E+00   1.1629195015924435E-03   4.7649451694633064E-06   5.3597908198657475E-05
         1         42   1.1258705976848477E-04   3.2533943430389684E-04   2.3862266405011540E-04   6.8293626707686267E-05
         1         43   3.4264224455910976E-03   7.8617625783154541E-03   6.3601259714784310E-03   1.2459351251272292E-03
         1         44   0.0000000000000000E+00   2.5748873237476334E-03   2.3106654615367284E-04   5.5839187554174825E-04
         1         45   3.9062206930742224E-04   1.5654425791544720E-03   1.1242204615484080E-03   2.8486887741001316E-04
         1         46   0.0000000000000000E+00   9.4244142948306405E-04   8.5380840431760154E-05   2.0068178356825279E-04
         1         47   0.0000000000000000E+00   1.0964514013492488E-03   6.2714567662644133E-06   5.5016306432159781E-05
         1         48   8.7973925843085174E-05   3.5832733237607363E-04   2.5608428623379731E-04   6.4680680695290577E-05
         1         49   0.0000000000000000E+00   2.2601720486665336E-04   1.9300846996101465E-05   4.7992361182309711E-05
         1         50   2.4955082208680721E-03   5.7161098206143252E-03   4.6269619260169833E-03   9.0499243141407989E-04
         1         51   1.1262325510512315E-04   4.4450081263398150E-04   3.1924617682138959E-04   8.2103934823498989E-05
         1         52   0.0000000000000000E+00   2.5268974017304087E-04   2.4441001330304955E-05   5.3822087206804916E-05
         1         53   1.3315925120089905E-03   3.0501155053261693E-03   2.4691301720221924E-03   4.8335291030511665E-04
         2          1   4.6850729348206133E-01   6.1881828384306736E-01   5.6111021436669517E-01   5.0117551392186072E-02
         2          2   1.2461983924928560E-01   2.7436953876553494E-01   2.2482112212919250E-01   4.4457135693832278E-02
         2          3   0.0000000000000000E+00   5.0329467595954948E-02   8.4735292148864598E-03   1.5485750105466703E-02
         2          4   0.0000000000000000E+00   6.4701496020064905E-02   1.3706417473048659E-03   5.9091928698948156E-03
         2          5   1.2057847639207064E-01   2.6571558945859042E-01   2.1764373952280031E-01   4.3040350473031092E-02
         2          6   0.0000000000000000E+00   4.8784011440659907E-02   8.2031408805137256E-03   1.4992130655914232E-02
         2          7   0.0000000000000000E+00   6.3313607217018425E-02   1.3284100519227514E-03   5.7365727898173822E-03
         2          8   1.1666819680753031E-01   2.5733477296443497E-01   2.1069557171821318E-01   4.1668753958921924E-02
         2          9   0.0000000000000000E+00   4.7286013175160520E-02   7.9413837493846166E-03   1.4514256010148437E-02
         2         10   0.0000000000000000E+00   6.1956238700144724E-02   1.2875022708347893E-03   5.5691589190598797E-03
         2         11   1.1288474798800550E-01   2.4921846311396986E-01   2.0396929608793252E-01   4.0340903647116635E-02
         2         12   0.0000000000000000E+00   4.5834015403556465E-02   7.6879821993031117E-03   1.4051623633935346E-02
         2         13   0.0000000000000000E+00   6.0628681726168587E-02   1.2478761447973377E-03   5.4067893155935760E-03
         2         14   4.3726310895588377E-01   5.7912358529677277E-01   5.2428546819460964E-01   4.6553564989752563E-02
         2         15   1.0922401540736271E-01   2.4135830635435213E-01   1.9745782401706136E-01   3.9055403118731888E-02
         2         16   0.0000000000000000E+00   4.4426605487264959E-02   7.4426694128078685E-03   1.3603747043079852E-02
         2         17   0.0000000000000000E+00   5.9330245849939421E-02   1.2094907898757823E-03   5.2493072318270124E-03
         2         18   1.0568201804309407E-01   2.3374621312747840E-01   1.9115429342229578E-01   3.7810900566819204E-02
         2         19   0.0000000000000000E+00   4.3062414170447316E-02   7.2051870958023826E-03   1.3170155290484629E-02
         2         20   0.0000000000000000E+00   5.8060258366754443E-02   1.1723066517153077E-03   5.0965609427075830E-03
         2         21   4.1526353693422158E-01   5.5117657816318399E-01   4.9837876938304965E-01   4.4080885733220464E-02
         2         22   3.9441355763394004E-01   5.2468404243417921E-01   4.7383824270028613E-01   4.1764001877489007E-02
         2         23   3.6828870553383353E-01   4.9146976040040263E-01   4.4309982108262019E-01   3.8895467135923796E-02
         2         24   3.4394730666537027E-01   4.6049072861205331E-01   4.1446322175014144E-01   3.6255067064923596E-02
         2         25   1.3615582143922233E-03   2.9869645505319351E-03   2.2249832258608368E-03   4.1463618943314774E-04
         2         26   7.1559410835592510E-04   1.6829724827959525E-03   1.3359517263074280E-03   2.7610905134748195E-04
         2         27   0.0000000000000000E+00   3.2796897453510630E-04   5.0667700470174988E-05   9.2869800839701338E-05
         2         28   0.0000000000000000E+00   3.0495451868219959E-04   3.8817049539473616E-06   1.9677197469616398E-05
         2         29   1.7913217752739684E-05   1.4416343121903080E-04   9.7337762834055994E-05   3.3915104345265165E-05
         2         30   1.4350801600568502E-03   3.1092474332458093E-03   2.3262423102846466E-03   4.4322284233313478E-04
         2         31   4.0578222110951457E-03   9.2954443134226263E-03   7.4394251433045839E-03   1.5022429052576891E-03
         2         32   0.0000000000000000E+00   1.7516085308451727E-03   2.8118701127465874E-04   5.1480389928060385E-04
         2         33   0.0000000000000000E+00   1.3135614801765899E-03   1.7974856475213669E-05   9.8612550314733464E-05
         2         34   5.3915294593046824E-05   4.3111333581377404E-04   2.9198757141345698E-04   1.0169857980583743E-04
         2         35   6.6935385626475477E-04   1.4810390635326405E-03   1.1020835791625805E-03   2.0435881733808360E-04
         2         36   1.1422409795617564E-04   2.8918951717758242E-04   2.2471666006529660E-04   4.9416280493038195E-05
         2         37   0.0000000000000000E+00   1.4624678200354747E-04   9.6667794830230780E-07   5.5759857610400485E-06
         2         38   7.4287580192938167E-04   1.6033219462465150E-03   1.2033426635863890E-03   2.3297515669036648E-04
         2         39   3.4574199085207489E-03   7.9022908432634532E-03   6.3281900770624545E-03   1.2755592651761967E-03
         2         40   0.0000000000000000E+00   1.4846324055321197E-03   2.3911442883702014E-04   4.3772219909848269E-04
         2         41   0.0000000000000000E+00   1.1217521078580881E-03   1.5059829469568612E-05   8.4388054763599260E-05
         2         42   4.0416363887143041E-05   3.2310004407135745E-04   2.1899550793241722E-04   7.6269991365352343E-05
         2         43   1.6351898556305809E-04   3.6883548742261082E-04   2.7432487870005949E-04   5.0725581211104208E-05
         2         44   2.0806355775591210E-04   4.5054957097580099E-04   3.4171952172227870E-04   6.9828568268824829E-05
         2         45   2.5167122266857942E-03   5.7462474397179065E-03   4.6034282726170059E-03   9.2716147843826093E-04
         2         46   0.0000000000000000E+00   1.0732366256280489E-03   1.7390085487447722E-04   3.1827770235999233E-04
         2         47   0.0000000000000000E+00   8.4043578218272327E-04   1.0906123334625460E-05   6.3212865791849391E-05
         2         48   2.2712425622632498E-05   1.8151830895647900E-04   1.2320667730133156E-04   4.2903953573350591E-05
         2         49   1.3391867334646105E-03   3.0666134591118715E-03   2.4562047072404455E-03   4.9598385408605283E-04
         2         50   0.0000000000000000E+00   5.6612272788353780E-04   9.2791409512687595E-05   1.6978142113848924E-04
         2         51   0.0000000000000000E+00   4.9503914535093806E-04   6.0069177520887234E-06   3.6652980675482004E-05
         3          1   5.8227573092400819E-01   6.1052379418439284E-01   5.9711335386486653E-01   5.7414165889914789E-03
         3          2   2.5451890253172738E-01   2.7366349168554643E-01   2.6388990983503530E-01   4.0404964859999948E-03
         3          3   2.4631330079524999E-01   2.6501778408826798E-01   2.5546924456457026E-01   3.9481256424403529E-03
         3          4   2.3837231037757597E-01   2.5664528060442554E-01   2.4731737962369241E-01   3.8575471108636726E-03
         3          5   5.5260937541026234E-01   5.8046079679348106E-01   5.6728643198149631E-01   5.6658460358431023E-03
         3          6   2.3068739607982811E-01   2.4853734592406687E-01   2.3942573134972545E-01   3.7687402931473367E-03
         3          7   2.2325029807891542E-01   2.4068561774412967E-01   2.3178599028458788E-01   3.6816840863806519E-03
         3          8   5.3374643661630539E-01   5.6132133307870191E-01   5.4830549999994782E-01   5.6129483675505720E-03
         3          9   2.1605302304075535E-01   2.3308199813517380E-01   2.2439011241213136E-01   3.5963569359509849E-03
         3         10   5.0674445024833448E-01   5.3388827869493394E-01   5.2111187743334630E-01   5.5300395272364728E-03
         3         11   4.8120522029089918E-01   5.0790056452588839E-01   4.9536540156501729E-01   5.4431592109256601E-03
         3         12   4.5703696466370264E-01   4.8326866508146338E-01   4.7097632909468967E-01   5.3526810302512266E-03
         3         13   2.2258131156022896E-03   2.7864535677308974E-03   2.5154796748445554E-03   1.1502056409949484E-04
         3         14   1.4826306857867611E-03   1.6858245114748189E-03   1.5777757941196446E-03   4.0798604551876731E-05
         3         15   2.3458439580931034E-03   2.9151698094554185E-03   2.6372030917198395E-03   1.1659772223424483E-04
         3         16   8.2845087958219026E-03   9.2923153202801156E-03   8.7571280859337491E-03   2.0853436102558643E-04
         3         17   3.4407575556368633E-04   4.2796253868256231E-04   3.8412539837838207E-04   1.7763851622705386E-05
         3         18   1.1002926088384292E-03   1.3803985042248556E-03   1.2452261872855106E-03   5.7371592494829461E-05
         3         19   1.2203234513292428E-03   1.5091147459493758E-03   1.3669496041607940E-03   5.9075556378031848E-05
         3         20   7.0499397350296811E-03   7.8996410580930553E-03   7.4470997200960162E-03   1.7589913695366822E-04
         4          1   0.0000000000000000E+00   1.7299285853862373E-01   3.5649027052680041E-02   4.7613692505465717E-02
         4          2   0.0000000000000000E+00   1.5243148551931063E-01   3.5855988109495286E-02   3.9322161692672296E-02
         4          3   3.3681689049038829E-02   8.2523934463081289E-02   5.3615238262560982E-02   1.1773237214186072E-02
         4          4   0.0000000000000000E+00   1.4835782666498684E-01   3.4751206958299176E-02   3.8176067070273684E-02
         4          5   0.0000000000000000E+00   1.4439345927721509E-01   3.3681059405038093E-02   3.7064362147468076E-02
         4          6   0.0000000000000000E+00   1.4053543193453605E-01   3.2644439947898361E-02   3.5985981810070906E-02
         4          7   0.0000000000000000E+00   1.6335101386531167E-01   3.2617653307154028E-02   4.4600728736476039E-02
         4          8   0.0000000000000000E+00   1.3678087385213589E-01   3.1640279063150457E-02   3.4939895085384365E-02
         4          9   3.0075840169834698E-02   7.6724920430268462E-02   4.8909865165713801E-02   1.1221752430963889E-02
         4         10   0.0000000000000000E+00   1.3312699263188640E-01   3.0667542008872447E-02   3.3925104008006093E-02
         4         11   0.0000000000000000E+00   1.5450694062060510E-01   2.9913379083312749E-02   4.1833036073875465E-02
         4         12   2.6856021400959277E-02   7.1333407130080115E-02   4.4621688379153347E-02   1.0677628342686306E-02
         4         13   2.3980905651047241E-02   6.6320759203789770E-02   4.0713342392437998E-02   1.0143848410809521E-02
         4         14   0.0000000000000000E+00   1.4442785246447190E-01   2.6927966349482368E-02   3.8676846027672088E-02
         4         15   2.0815912950335930E-02   6.0547350097539351E-02   3.6310568612591625E-02   9.4947599104686312E-03
         4         16   0.0000000000000000E+00   1.3528698534792982E-01   2.4316415148255565E-02   3.5816304322100395E-02
         4         17   1.8068635032432181E-02   5.5276532534394060E-02   3.2388695418943250E-02   8.8690939963312898E-03
         4         18   0.0000000000000000E+00   1.2537459699030956E-01   2.1595637743179515E-02   3.2722170168606624E-02
         4         19   0.0000000000000000E+00   3.2574898162789453E-04   9.3107954389373237E-06   3.6090785183410330E-05
         4         20   0.0000000000000000E+00   7.8826698674801438E-05   4.1796185611898909E-06   1.1466909619662516E-05
         4         21   0.0000000000000000E+00   8.5584156178838619E-04   8.6933135329418898E-05   1.7654242493652281E-04
         4         22   0.0000000000000000E+00   1.1523482884162961E-04   1.0699831397747904E-05   2.2149742381444026E-05
         4         23   0.0000000000000000E+00   3.9625511292560988E-03   4.8483451165743361E-04   8.7961921131252281E-04
         4         24   0.0000000000000000E+00   1.8280099849920628E-04   2.0231061476371093E-05   4.0582188369934714E-05
         4         25   0.0000000000000000E+00   1.5556340961858371E-04   1.3639907181063810E-05   3.0376916144672723E-05
         4         26   0.0000000000000000E+00   3.2610084960127644E-03   4.1154128350907849E-04   7.3407470001283419E-04
         4         27   0.0000000000000000E+00   1.2847753283971259E-04   1.4868485107693269E-05   2.9194338773241910E-05
