begin
comment Generated from -, TIMESTEP: 20000000
lattice   4.2888632301285426E+01   0.0000000000000000E+00   0.0000000000000000E+00
lattice   0.0000000000000000E+00   4.4571144109503649E+01   0.0000000000000000E+00
lattice   0.0000000000000000E+00   0.0000000000000000E+00   4.2022085732793258E+01
atom   3.3161137848673654E+01   1.3927124396757034E+01   1.0505195708760620E+00  O   0.0000000000000000E+00   0.0000000000000000E+00   0.0000000000000000E+00   0.0000000000000000E+00   0.0000000000000000E+00 
atom   3.2223644714191565E+01   1.4287155019578091E+01   2.6234312277860092E+00  H   0.0000000000000000E+00   0.0000000000000000E+00   0.0000000000000000E+00   0.0000000000000000E+00   0.0000000000000000E+00 
atom   3.4910646302419885E+01   1.4014769894796299E+01   1.5894694639506222E+00  H   0.0000000000000000E+00   0.0000000000000000E+00   0.0000000000000000E+00   0.0000000000000000E+00   0.0000000000000000E+00 
atom   1.7330051657448287E+01   2.4407356556652555E+01   4.7445732228086968E+00  O   0.0000000000000000E+00   0.0000000000000000E+00   0.0000000000000000E+00   0.0000000000000000E+00   0.0000000000000000E+00 
atom   1.8487357735697664E+01   2.2963605791193352E+01   4.4120381152198807E+00  H   0.0000000000000000E+00   0.0000000000000000E+00   0.0000000000000000E+00   0.0000000000000000E+00   0.0000000000000000E+00 
atom   1.7365124974473058E+01   2.5403998119091273E+01   3.1352446535935607E+00  H   0.0000000000000000E+00   0.0000000000000000E+00   0.0000000000000000E+00   0.0000000000000000E+00   0.0000000000000000E+00 
atom   3.4769483760299728E+01   3.2926619908541518E+01   1.2372660627730504E+01  O   0.0000000000000000E+00   0.0000000000000000E+00   0.0000000000000000E+00   0.0000000000000000E+00   0.0000000000000000E+00 
atom   3.4668761357421488E+01   3.4522871572917666E+01   1.3292182466689656E+01  H   0.0000000000000000E+00   0.0000000000000000E+00   0.0000000000000000E+00   0.0000000000000000E+00   0.0000000000000000E+00 
atom   3.5955475881245007E+01   3.1813193271095759E+01   1.3236681210169321E+01  H   0.0000000000000000E+00   0.0000000000000000E+00   0.0000000000000000E+00   0.0000000000000000E+00   0.0000000000000000E+00 
atom   1.0812424019943746E+01   3.0812961229004721E+01   1.9094964502678618E+01  O   0.0000000000000000E+00   0.0000000000000000E+00   0.0000000000000000E+00   0.0000000000000000E+00   0.0000000000000000E+00 
atom   1.1842551529455681E+01   2.9323101145905195E+01   1.8553784732767355E+01  H   0.0000000000000000E+00   0.0000000000000000E+00   0.0000000000000000E+00   0.0000000000000000E+00   0.0000000000000000E+00 
atom   1.1789072279897441E+01   3.2006890199707755E+01   2.0046309329714120E+01  H   0.0000000000000000E+00   0.0000000000000000E+00   0.0000000000000000E+00   0.0000000000000000E+00   0.0000000000000000E+00 
atom   2.1386254315196847E+01   2.1217120899259594E+01   3.0228626404759451E+00  O   0.0000000000000000E+00   0.0000000000000000E+00   0.0000000000000000E+00   0.0000000000000000E+00   0.0000000000000000E+00 
atom   2.1346381093794772E+01   1.9282230311885673E+01   3.2870841483640412E+00  H   0.0000000000000000E+00   0.0000000000000000E+00   0.0000000000000000E+00   0.0000000000000000E+00   0.0000000000000000E+00 
atom   2.1361687875470448E+01   2.1399101525848234E+01   1.1655887745545197E+00  H   0.0000000000000000E+00   0.0000000000000000E+00   0.0000000000000000E+00   0.0000000000000000E+00   0.0000000000000000E+00 
atom   1.4792810865244370E+01   4.2842579845182946E+01   8.0803933814725681E+00  O   0.0000000000000000E+00   0.0000000000000000E+00   0.0000000000000000E+00   0.0000000000000000E+00   0.0000000000000000E+00 
atom   1.3450538393116529E+01   4.1982376509532394E+01   7.0313686106326330E+00  H   0.0000000000000000E+00   0.0000000000000000E+00   0.0000000000000000E+00   0.0000000000000000E+00   0.0000000000000000E+00 
atom   1.5871731103505200E+01   4.3069535953732228E+01   6.5522285496611934E+00  H   0.0000000000000000E+00   0.0000000000000000E+00   0.0000000000000000E+00   0.0000000000000000E+00   0.0000000000000000E+00 
atom   8.1785426333084335E+00   1.6195872900012731E+01   3.7307067826709321E+01  O   0.0000000000000000E+00   0.0000000000000000E+00   0.0000000000000000E+00   0.0000000000000000E+00   0.0000000000000000E+00 
atom   1.0031078955814928E+01   1.5612023114022840E+01   3.7156834599151715E+01  H   0.0000000000000000E+00   0.0000000000000000E+00   0.0000000000000000E+00   0.0000000000000000E+00   0.0000000000000000E+00 
atom   7.6761778381648815E+00   1.5178538836419850E+01   3.8874028736027078E+01  H   0.0000000000000000E+00   0.0000000000000000E+00   0.0000000000000000E+00   0.0000000000000000E+00   0.0000000000000000E+00 
atom   3.3509792320175251E+01   3.0109794134989833E+01   3.7570684622234914E+01  O   0.0000000000000000E+00   0.0000000000000000E+00   0.0000000000000000E+00   0.0000000000000000E+00   0.0000000000000000E+00 
atom   3.4543094569590288E+01   2.9481082250607272E+01   3.8921460861960362E+01  H   0.0000000000000000E+00   0.0000000000000000E+00   0.0000000000000000E+00   0.0000000000000000E+00   0.0000000000000000E+00 
atom   3.1676946943972528E+01   3.0082582078677515E+01   3.8038769785329478E+01  H   0.0000000000000000E+00   0.0000000000000000E+00   0.0000000000000000E+00   0.0000000000000000E+00   0.0000000000000000E+00 
atom   1.6668307360264386E+01   3.7874111896825191E+01   2.9786713708618439E+01  O   0.0000000000000000E+00   0.0000000000000000E+00   0.0000000000000000E+00   0.0000000000000000E+00   0.0000000000000000E+00 
atom   1.4948051867053890E+01   3.7695343804662315E+01   3.0602508480148202E+01  H   0.0000000000000000E+00   0.0000000000000000E+00   0.0000000000000000E+00   0.0000000000000000E+00   0.0000000000000000E+00 
atom   1.7528775257573535E+01   3.6826447728800872E+01   3.1080987136973164E+01  H   0.0000000000000000E+00   0.0000000000000000E+00   0.0000000000000000E+00   0.0000000000000000E+00   0.0000000000000000E+00 
atom   2.1470914045946287E+01   2.4488614780362955E+01   2.9709423909786921E+01  O   0.0000000000000000E+00   0.0000000000000000E+00   0.0000000000000000E+00   0.0000000000000000E+00   0.0000000000000000E+00 
atom   2.0239946443040367E+01   2.4828954456880233E+01   3.1156198237058600E+01  H   0.0000000000000000E+00   0.0000000000000000E+00   0.0000000000000000E+00   0.0000000000000000E+00   0.0000000000000000E+00 
atom   2.1131708205108691E+01   2.2764806602022794E+01   2.9374375466441478E+01  H   0.0000000000000000E+00   0.0000000000000000E+00   0.0000000000000000E+00   0.0000000000000000E+00   0.0000000000000000E+00 
atom   1.7168839121059122E+01   3.4068581410592557E+01   2.5587175323697000E+01  O   0.0000000000000000E+00   0.0000000000000000E+00   0.0000000000000000E+00   0.0000000000000000E+00   0.0000000000000000E+00 
atom   1.7193197690910914E+01   3.5648203485000067E+01   2.6524668458179079E+01  H   0.0000000000000000E+00   0.0000000000000000E+00   0.0000000000000000E+00   0.0000000000000000E+00   0.0000000000000000E+00 
atom   1.8700122000989619E+01   3.4153997031795107E+01   2.4662343354304681E+01  H   0.0000000000000000E+00   0.0000000000000000E+00   0.0000000000000000E+00   0.0000000000000000E+00   0.0000000000000000E+00 
atom   6.3288786945237936E+00   2.4841048704130156E+01   4.0656040479257477E+01  O   0.0000000000000000E+00   0.0000000000000000E+00   0.0000000000000000E+00   0.0000000000000000E+00   0.0000000000000000E+00 
atom   7.4482579692878739E+00   2.5986978631060072E+01   4.1613942655973801E+01  H   0.0000000000000000E+00   0.0000000000000000E+00   0.0000000000000000E+00   0.0000000000000000E+00   0.0000000000000000E+00 
atom   6.8276530100150259E+00   2.4989392205554953E+01   3.8807132430925954E+01  H   0.0000000000000000E+00   0.0000000000000000E+00   0.0000000000000000E+00   0.0000000000000000E+00   0.0000000000000000E+00 
atom   1.2172081972493345E+01   1.4276137916223865E+01   2.3444414861715078E+01  O   0.0000000000000000E+00   0.0000000000000000E+00   0.0000000000000000E+00   0.0000000000000000E+00   0.0000000000000000E+00 
atom   1.2115144524112083E+01   1.3810925136851163E+01   2.1647852227262121E+01  H   0.0000000000000000E+00   0.0000000000000000E+00   0.0000000000000000E+00   0.0000000000000000E+00   0.0000000000000000E+00 
atom   1.1244396516640498E+01   1.2865230590952731E+01   2.4343735528314600E+01  H   0.0000000000000000E+00   0.0000000000000000E+00   0.0000000000000000E+00   0.0000000000000000E+00   0.0000000000000000E+00 
atom   6.0124062590637779E+00   2.5971957785093225E+00   3.4791086453499396E+01  O   0.0000000000000000E+00   0.0000000000000000E+00   0.0000000000000000E+00   0.0000000000000000E+00   0.0000000000000000E+00 
atom   5.1885612542082900E+00   3.7328078007541547E+00   3.3564465220698921E+01  H   0.0000000000000000E+00   0.0000000000000000E+00   0.0000000000000000E+00   0.0000000000000000E+00   0.0000000000000000E+00 
atom   6.2967911447888500E+00   1.2264451335601871E+00   3.3571835152616842E+01  H   0.0000000000000000E+00   0.0000000000000000E+00   0.0000000000000000E+00   0.0000000000000000E+00   0.0000000000000000E+00 
atom   2.1949203730157969E+01   1.5764448423894493E+01   1.7710022014472152E+01  O   0.0000000000000000E+00   0.0000000000000000E+00   0.0000000000000000E+00   0.0000000000000000E+00   0.0000000000000000E+00 
atom   2.1741522828163248E+01   1.7518378836791481E+01   1.6935253197285480E+01  H   0.0000000000000000E+00   0.0000000000000000E+00   0.0000000000000000E+00   0.0000000000000000E+00   0.0000000000000000E+00 
atom   2.2147624974101969E+01   1.6219116531446168E+01   1.9439707241085319E+01  H   0.0000000000000000E+00   0.0000000000000000E+00   0.0000000000000000E+00   0.0000000000000000E+00   0.0000000000000000E+00 
atom   3.0637597570932535E+01   3.1710867077793545E+00   2.2652997557298441E+01  O   0.0000000000000000E+00   0.0000000000000000E+00   0.0000000000000000E+00   0.0000000000000000E+00   0.0000000000000000E+00 
atom   3.1780314963436684E+01   1.7544610712303661E+00   2.2845560650230762E+01  H   0.0000000000000000E+00   0.0000000000000000E+00   0.0000000000000000E+00   0.0000000000000000E+00   0.0000000000000000E+00 
atom   3.0807483950271255E+01   3.1914957500135950E+00   2.0691272858838762E+01  H   0.0000000000000000E+00   0.0000000000000000E+00   0.0000000000000000E+00   0.0000000000000000E+00   0.0000000000000000E+00 
atom   1.0923785580949650E+01   4.3691255851423428E+01   1.0872577366238267E+00  O   0.0000000000000000E+00   0.0000000000000000E+00   0.0000000000000000E+00   0.0000000000000000E+00   0.0000000000000000E+00 
atom   1.1451208144614130E+01   4.3235831853418631E+01   4.1429127440185958E+01  H   0.0000000000000000E+00   0.0000000000000000E+00   0.0000000000000000E+00   0.0000000000000000E+00   0.0000000000000000E+00 
atom   1.1666769204582625E+01   7.1029478627785891E-01   1.4291696652835963E+00  H   0.0000000000000000E+00   0.0000000000000000E+00   0.0000000000000000E+00   0.0000000000000000E+00   0.0000000000000000E+00 
atom   1.3203655596858692E+00   8.3182849537773382E+00   3.9203219028360841E+01  O   0.0000000000000000E+00   0.0000000000000000E+00   0.0000000000000000E+00   0.0000000000000000E+00   0.0000000000000000E+00 
atom   2.0502080277913537E+00   9.4635156820381212E+00   4.0301527856744201E+01  H   0.0000000000000000E+00   0.0000000000000000E+00   0.0000000000000000E+00   0.0000000000000000E+00   0.0000000000000000E+00 
atom   2.1436077419049941E+00   6.7184617070101869E+00   3.9192636562017157E+01  H   0.0000000000000000E+00   0.0000000000000000E+00   0.0000000000000000E+00   0.0000000000000000E+00   0.0000000000000000E+00 
atom   2.3572478478233169E+01   3.4889478442680876E+01   8.0552033321223444E+00  O   0.0000000000000000E+00   0.0000000000000000E+00   0.0000000000000000E+00   0.0000000000000000E+00   0.0000000000000000E+00 
atom   2.3869543426309328E+01   3.6758228615406793E+01   7.8609961774544894E+00  H   0.0000000000000000E+00   0.0000000000000000E+00   0.0000000000000000E+00   0.0000000000000000E+00   0.0000000000000000E+00 
atom   2.1798970502600369E+01   3.4656097265280074E+01   7.3588959439695296E+00  H   0.0000000000000000E+00   0.0000000000000000E+00   0.0000000000000000E+00   0.0000000000000000E+00   0.0000000000000000E+00 
atom   2.7830976318497971E+01   2.2015152245141035E+01   2.4038922703093959E+01  O   0.0000000000000000E+00   0.0000000000000000E+00   0.0000000000000000E+00   0.0000000000000000E+00   0.0000000000000000E+00 
atom   2.6856255579199729E+01   2.3569074044142475E+01   2.4296870320221160E+01  H   0.0000000000000000E+00   0.0000000000000000E+00   0.0000000000000000E+00   0.0000000000000000E+00   0.0000000000000000E+00 
atom   2.6941104282562449E+01   2.1058194931491112E+01   2.2608211047951080E+01  H   0.0000000000000000E+00   0.0000000000000000E+00   0.0000000000000000E+00   0.0000000000000000E+00   0.0000000000000000E+00 
atom   3.5230198991476364E+01   5.9576579659449065E+00   6.2724734929614812E+00  O   0.0000000000000000E+00   0.0000000000000000E+00   0.0000000000000000E+00   0.0000000000000000E+00   0.0000000000000000E+00 
atom   3.4955432811767253E+01   4.1170836098590344E+00   5.9268236860110326E+00  H   0.0000000000000000E+00   0.0000000000000000E+00   0.0000000000000000E+00   0.0000000000000000E+00   0.0000000000000000E+00 
atom   3.4443694975005009E+01   7.0811757409398179E+00   5.1366724981033691E+00  H   0.0000000000000000E+00   0.0000000000000000E+00   0.0000000000000000E+00   0.0000000000000000E+00   0.0000000000000000E+00 
atom   1.1248856270313906E+01   1.8720547013433531E+01   2.5842099379011721E+01  O   0.0000000000000000E+00   0.0000000000000000E+00   0.0000000000000000E+00   0.0000000000000000E+00   0.0000000000000000E+00 
atom   1.1093350706845793E+01   1.7378728075577563E+01   2.4563321704945960E+01  H   0.0000000000000000E+00   0.0000000000000000E+00   0.0000000000000000E+00   0.0000000000000000E+00   0.0000000000000000E+00 
atom   1.0620276666760642E+01   1.8087923395956071E+01   2.7502790704516361E+01  H   0.0000000000000000E+00   0.0000000000000000E+00   0.0000000000000000E+00   0.0000000000000000E+00   0.0000000000000000E+00 
atom   3.8829371384007246E+01   2.8258240470072394E+01   1.4155749514856600E+01  O   0.0000000000000000E+00   0.0000000000000000E+00   0.0000000000000000E+00   0.0000000000000000E+00   0.0000000000000000E+00 
atom   3.7436265278907086E+01   2.6979084850780072E+01   1.4620697732570713E+01  H   0.0000000000000000E+00   0.0000000000000000E+00   0.0000000000000000E+00   0.0000000000000000E+00   0.0000000000000000E+00 
atom   3.8812174876198760E+01   2.8048669841944875E+01   1.2323867898981607E+01  H   0.0000000000000000E+00   0.0000000000000000E+00   0.0000000000000000E+00   0.0000000000000000E+00   0.0000000000000000E+00 
atom   1.0617026337812225E+01   2.0665320868481995E+01   4.0269213539873327E+01  O   0.0000000000000000E+00   0.0000000000000000E+00   0.0000000000000000E+00   0.0000000000000000E+00   0.0000000000000000E+00 
atom   9.6774734018453934E+00   1.9278261887006796E+01   3.9547527129757000E+01  H   0.0000000000000000E+00   0.0000000000000000E+00   0.0000000000000000E+00   0.0000000000000000E+00   0.0000000000000000E+00 
atom   9.4924692134442719E+00   2.2077324234910154E+01   4.0053217842894284E+01  H   0.0000000000000000E+00   0.0000000000000000E+00   0.0000000000000000E+00   0.0000000000000000E+00   0.0000000000000000E+00 
atom   1.3983006525555584E+01   3.1351911122079272E+01   3.1452979966200569E+00  O   0.0000000000000000E+00   0.0000000000000000E+00   0.0000000000000000E+00   0.0000000000000000E+00   0.0000000000000000E+00 
atom   1.4141384472745553E+01   2.9790241445933354E+01   2.0856926491625738E+00  H   0.0000000000000000E+00   0.0000000000000000E+00   0.0000000000000000E+00   0.0000000000000000E+00   0.0000000000000000E+00 
atom   1.2210556796557153E+01   3.1907490605122465E+01   3.0049858312596571E+00  H   0.0000000000000000E+00   0.0000000000000000E+00   0.0000000000000000E+00   0.0000000000000000E+00   0.0000000000000000E+00 
atom   3.1145744928042443E+01   1.2976648843742618E+01   1.5484831698577498E+01  O   0.0000000000000000E+00   0.0000000000000000E+00   0.0000000000000000E+00   0.0000000000000000E+00   0.0000000000000000E+00 
atom   3.1827180171530134E+01   1.2580259890126491E+01   1.3827409599282602E+01  H   0.0000000000000000E+00   0.0000000000000000E+00   0.0000000000000000E+00   0.0000000000000000E+00   0.0000000000000000E+00 
atom   3.1486840495012849E+01   1.4948332398922155E+01   1.5859772260586345E+01  H   0.0000000000000000E+00   0.0000000000000000E+00   0.0000000000000000E+00   0.0000000000000000E+00   0.0000000000000000E+00 
atom   7.2263663267744978E+00   1.4089281796212603E+01   4.1727893141781635E+01  O   0.0000000000000000E+00   0.0000000000000000E+00   0.0000000000000000E+00   0.0000000000000000E+00   0.0000000000000000E+00 
atom   7.5582211329555058E+00   1.5519842273264858E+01   8.3635879797197088E-01  H   0.0000000000000000E+00   0.0000000000000000E+00   0.0000000000000000E+00   0.0000000000000000E+00   0.0000000000000000E+00 
atom   8.2760147072382590E+00   1.2803417649148843E+01   5.7828267946774048E-01  H   0.0000000000000000E+00   0.0000000000000000E+00   0.0000000000000000E+00   0.0000000000000000E+00   0.0000000000000000E+00 
atom   3.4405900452349009E+01   3.5290856273287595E+01   4.1845245134628520E+01  O   0.0000000000000000E+00   0.0000000000000000E+00   0.0000000000000000E+00   0.0000000000000000E+00   0.0000000000000000E+00 
atom   3.6000073417979088E+01   3.5196747911874148E+01   6.0304754043808451E-01  H   0.0000000000000000E+00   0.0000000000000000E+00   0.0000000000000000E+00   0.0000000000000000E+00   0.0000000000000000E+00 
atom   3.3610514723053491E+01   3.3709533445360549E+01   5.8080735358116131E-01  H   0.0000000000000000E+00   0.0000000000000000E+00   0.0000000000000000E+00   0.0000000000000000E+00   0.0000000000000000E+00 
atom   8.9727945269242735E+00   4.1836678624693505E+01   2.4126039077816042E+01  O   0.0000000000000000E+00   0.0000000000000000E+00   0.0000000000000000E+00   0.0000000000000000E+00   0.0000000000000000E+00 
atom   9.2063835741996822E+00   4.1187746670689997E+01   2.2405254461288362E+01  H   0.0000000000000000E+00   0.0000000000000000E+00   0.0000000000000000E+00   0.0000000000000000E+00   0.0000000000000000E+00 
atom   7.3869174590171855E+00   4.2776439430534950E+01   2.4369624776333961E+01  H   0.0000000000000000E+00   0.0000000000000000E+00   0.0000000000000000E+00   0.0000000000000000E+00   0.0000000000000000E+00 
atom   2.8480475190341330E+01   2.9562907392157513E+01   3.9904496396242912E+01  O   0.0000000000000000E+00   0.0000000000000000E+00   0.0000000000000000E+00   0.0000000000000000E+00   0.0000000000000000E+00 
atom   2.9338977772472369E+01   2.9289841965967916E+01   4.1459741003537317E+01  H   0.0000000000000000E+00   0.0000000000000000E+00   0.0000000000000000E+00   0.0000000000000000E+00   0.0000000000000000E+00 
atom   2.7514636163867248E+01   2.8023158539152075E+01   3.9517102539018921E+01  H   0.0000000000000000E+00   0.0000000000000000E+00   0.0000000000000000E+00   0.0000000000000000E+00   0.0000000000000000E+00 
atom   6.7747595755579537E+00   3.8246106962855784E+00   2.7079681023382438E+01  O   0.0000000000000000E+00   0.0000000000000000E+00   0.0000000000000000E+00   0.0000000000000000E+00   0.0000000000000000E+00 
atom   8.6592322697087685E+00   3.8139337436352587E+00   2.7380903368950758E+01  H   0.0000000000000000E+00   0.0000000000000000E+00   0.0000000000000000E+00   0.0000000000000000E+00   0.0000000000000000E+00 
atom   6.2503605737059535E+00   3.2914244679160589E+00   2.5346613186991561E+01  H   0.0000000000000000E+00   0.0000000000000000E+00   0.0000000000000000E+00   0.0000000000000000E+00   0.0000000000000000E+00 
atom   1.7628855153566626E+01   2.0690454226048235E+01   3.2966366899667726E+01  O   0.0000000000000000E+00   0.0000000000000000E+00   0.0000000000000000E+00   0.0000000000000000E+00   0.0000000000000000E+00 
atom   1.7356999152102016E+01   2.0720500871559754E+01   3.1175662416226444E+01  H   0.0000000000000000E+00   0.0000000000000000E+00   0.0000000000000000E+00   0.0000000000000000E+00   0.0000000000000000E+00 
atom   1.9291303924374770E+01   1.9955728705615595E+01   3.3009263682882285E+01  H   0.0000000000000000E+00   0.0000000000000000E+00   0.0000000000000000E+00   0.0000000000000000E+00   0.0000000000000000E+00 
atom   3.1969476549329972E+01   3.0644019712732391E+01   2.3311661840871611E+00  O   0.0000000000000000E+00   0.0000000000000000E+00   0.0000000000000000E+00   0.0000000000000000E+00   0.0000000000000000E+00 
atom   3.3336504433797487E+01   2.9421933822650633E+01   2.1627159966093692E+00  H   0.0000000000000000E+00   0.0000000000000000E+00   0.0000000000000000E+00   0.0000000000000000E+00   0.0000000000000000E+00 
atom   3.1420322135138282E+01   3.0871920684348076E+01   4.1613848409652894E+00  H   0.0000000000000000E+00   0.0000000000000000E+00   0.0000000000000000E+00   0.0000000000000000E+00   0.0000000000000000E+00 
atom   2.5851110249163408E+01   3.2370662480271747E+01   2.1599853183489000E+01  O   0.0000000000000000E+00   0.0000000000000000E+00   0.0000000000000000E+00   0.0000000000000000E+00   0.0000000000000000E+00 
atom   2.6243228421719408E+01   3.2447385361263436E+01   1.9782125616348683E+01  H   0.0000000000000000E+00   0.0000000000000000E+00   0.0000000000000000E+00   0.0000000000000000E+00   0.0000000000000000E+00 
atom   2.6638937073927728E+01   3.3955008870011270E+01   2.2309256373742119E+01  H   0.0000000000000000E+00   0.0000000000000000E+00   0.0000000000000000E+00   0.0000000000000000E+00   0.0000000000000000E+00 
atom   2.5183092061218609E+01   3.8952389628200869E+01   3.6452155724230607E+01  O   0.0000000000000000E+00   0.0000000000000000E+00   0.0000000000000000E+00   0.0000000000000000E+00   0.0000000000000000E+00 
atom   2.6229433420949970E+01   4.0403132380351437E+01   3.7108646582765324E+01  H   0.0000000000000000E+00   0.0000000000000000E+00   0.0000000000000000E+00   0.0000000000000000E+00   0.0000000000000000E+00 
atom   2.6398941855062127E+01   3.7854647717657350E+01   3.5649400063017154E+01  H   0.0000000000000000E+00   0.0000000000000000E+00   0.0000000000000000E+00   0.0000000000000000E+00   0.0000000000000000E+00 
atom   2.4760738270537807E+01   1.8415337345725003E+01   9.1928940531132568E+00  O   0.0000000000000000E+00   0.0000000000000000E+00   0.0000000000000000E+00   0.0000000000000000E+00   0.0000000000000000E+00 
atom   2.5055913492481167E+01   1.6590485511064024E+01   9.2194636025404257E+00  H   0.0000000000000000E+00   0.0000000000000000E+00   0.0000000000000000E+00   0.0000000000000000E+00   0.0000000000000000E+00 
atom   2.3237996952727570E+01   1.8967931061478378E+01   9.9905663510294644E+00  H   0.0000000000000000E+00   0.0000000000000000E+00   0.0000000000000000E+00   0.0000000000000000E+00   0.0000000000000000E+00 
atom   2.5626988729813331E+01   1.9134475102350956E+00   3.2816133672110119E+01  O   0.0000000000000000E+00   0.0000000000000000E+00   0.0000000000000000E+00   0.0000000000000000E+00   0.0000000000000000E+00 
atom   2.6705833379028849E+01   2.4444870097177551E+00   3.1348950302604194E+01  H   0.0000000000000000E+00   0.0000000000000000E+00   0.0000000000000000E+00   0.0000000000000000E+00   0.0000000000000000E+00 
atom   2.5636248387864050E+01   2.4643563787902230E-02   3.2902872101605645E+01  H   0.0000000000000000E+00   0.0000000000000000E+00   0.0000000000000000E+00   0.0000000000000000E+00   0.0000000000000000E+00 
atom   4.8133372332795217E+00   1.4626115196018427E+01   2.1991782383431723E+01  O   0.0000000000000000E+00   0.0000000000000000E+00   0.0000000000000000E+00   0.0000000000000000E+00   0.0000000000000000E+00 
atom   5.5141610668897290E+00   1.5347801606134745E+01   2.3497327193433481E+01  H   0.0000000000000000E+00   0.0000000000000000E+00   0.0000000000000000E+00   0.0000000000000000E+00   0.0000000000000000E+00 
atom   3.1632850659025458E+00   1.3788607471222795E+01   2.2463458026178600E+01  H   0.0000000000000000E+00   0.0000000000000000E+00   0.0000000000000000E+00   0.0000000000000000E+00   0.0000000000000000E+00 
atom   2.2299181009952527E+01   9.1074937554075175E-01   4.0301716829357474E+01  O   0.0000000000000000E+00   0.0000000000000000E+00   0.0000000000000000E+00   0.0000000000000000E+00   0.0000000000000000E+00 
atom   2.2998379679088529E+01   4.4334518627028551E+01   4.1462386620123240E+01  H   0.0000000000000000E+00   0.0000000000000000E+00   0.0000000000000000E+00   0.0000000000000000E+00   0.0000000000000000E+00 
atom   2.0444603783222608E+01   7.1219018158905745E-01   4.0454406700887724E+01  H   0.0000000000000000E+00   0.0000000000000000E+00   0.0000000000000000E+00   0.0000000000000000E+00   0.0000000000000000E+00 
atom   3.2589052082222261E+00   3.9008514494345043E+01   2.9242472582372042E+01  O   0.0000000000000000E+00   0.0000000000000000E+00   0.0000000000000000E+00   0.0000000000000000E+00   0.0000000000000000E+00 
atom   1.4286714335350355E+00   3.8886249213552873E+01   2.8786103721300840E+01  H   0.0000000000000000E+00   0.0000000000000000E+00   0.0000000000000000E+00   0.0000000000000000E+00   0.0000000000000000E+00 
atom   3.8021636768795699E+00   3.7336862757270147E+01   2.9817138299356522E+01  H   0.0000000000000000E+00   0.0000000000000000E+00   0.0000000000000000E+00   0.0000000000000000E+00   0.0000000000000000E+00 
atom   4.0625367100620373E+01   4.4396123698957837E+01   2.6116487613494279E+01  O   0.0000000000000000E+00   0.0000000000000000E+00   0.0000000000000000E+00   0.0000000000000000E+00   0.0000000000000000E+00 
atom   4.0619131004382126E+01   4.2464445646009665E+01   2.6206816522642118E+01  H   0.0000000000000000E+00   0.0000000000000000E+00   0.0000000000000000E+00   0.0000000000000000E+00   0.0000000000000000E+00 
atom   4.0172777691814773E+01   1.5195724794383741E-01   2.4435009300528840E+01  H   0.0000000000000000E+00   0.0000000000000000E+00   0.0000000000000000E+00   0.0000000000000000E+00   0.0000000000000000E+00 
atom   1.2784957951883042E+01   4.3024182526545040E+01   2.7778312774678600E+01  O   0.0000000000000000E+00   0.0000000000000000E+00   0.0000000000000000E+00   0.0000000000000000E+00   0.0000000000000000E+00 
atom   1.1338580467099250E+01   4.2646993190438153E+01   2.6497078456640200E+01  H   0.0000000000000000E+00   0.0000000000000000E+00   0.0000000000000000E+00   0.0000000000000000E+00   0.0000000000000000E+00 
atom   1.4459519867202435E+01   4.2777384293601358E+01   2.6754648128540840E+01  H   0.0000000000000000E+00   0.0000000000000000E+00   0.0000000000000000E+00   0.0000000000000000E+00   0.0000000000000000E+00 
atom   6.4074067383341149E-01   1.9514990356451563E+00   3.0630476426913646E+01  O   0.0000000000000000E+00   0.0000000000000000E+00   0.0000000000000000E+00   0.0000000000000000E+00   0.0000000000000000E+00 
atom   4.2311947674144371E+01   3.1849006058101228E+00   3.1498616612321957E+01  H   0.0000000000000000E+00   0.0000000000000000E+00   0.0000000000000000E+00   0.0000000000000000E+00   0.0000000000000000E+00 
atom   4.2460291175569168E+01   1.4020573830812910E+00   2.9056901476131081E+01  H   0.0000000000000000E+00   0.0000000000000000E+00   0.0000000000000000E+00   0.0000000000000000E+00   0.0000000000000000E+00 
atom   3.7655851455538446E+01   2.0036986929325991E+01   1.1805478226231912E+01  O   0.0000000000000000E+00   0.0000000000000000E+00   0.0000000000000000E+00   0.0000000000000000E+00   0.0000000000000000E+00 
atom   3.7135798823791887E+01   2.0300603724851591E+01   1.3601152689402456E+01  H   0.0000000000000000E+00   0.0000000000000000E+00   0.0000000000000000E+00   0.0000000000000000E+00   0.0000000000000000E+00 
atom   3.8412119853885002E+01   1.8347647355648103E+01   1.1900077916439882E+01  H   0.0000000000000000E+00   0.0000000000000000E+00   0.0000000000000000E+00   0.0000000000000000E+00   0.0000000000000000E+00 
atom   2.6579788645971089E+01   1.8147600947229897E+01   2.0506646615664202E+01  O   0.0000000000000000E+00   0.0000000000000000E+00   0.0000000000000000E+00   0.0000000000000000E+00   0.0000000000000000E+00 
atom   2.8134277362812366E+01   1.7920247996192728E+01   1.9554602589959561E+01  H   0.0000000000000000E+00   0.0000000000000000E+00   0.0000000000000000E+00   0.0000000000000000E+00   0.0000000000000000E+00 
atom   2.6448452679741489E+01   1.6690848865977035E+01   2.1588892771918761E+01  H   0.0000000000000000E+00   0.0000000000000000E+00   0.0000000000000000E+00   0.0000000000000000E+00   0.0000000000000000E+00 
atom   3.6133299110341483E+01   1.7448024332867341E+01   2.7207993427799558E+01  O   0.0000000000000000E+00   0.0000000000000000E+00   0.0000000000000000E+00   0.0000000000000000E+00   0.0000000000000000E+00 
atom   3.6420726455140368E+01   1.7683049572003675E+01   2.8968840238342601E+01  H   0.0000000000000000E+00   0.0000000000000000E+00   0.0000000000000000E+00   0.0000000000000000E+00   0.0000000000000000E+00 
atom   3.4650431013933336E+01   1.8439544737486170E+01   2.6852157996993320E+01  H   0.0000000000000000E+00   0.0000000000000000E+00   0.0000000000000000E+00   0.0000000000000000E+00   0.0000000000000000E+00 
atom   1.7526753250611439E+01   6.3876840447248746E+00   4.1424970042693793E+01  O   0.0000000000000000E+00   0.0000000000000000E+00   0.0000000000000000E+00   0.0000000000000000E+00   0.0000000000000000E+00 
atom   1.8335480446404528E+01   8.0548949253876749E+00   4.1508873882990123E+01  H   0.0000000000000000E+00   0.0000000000000000E+00   0.0000000000000000E+00   0.0000000000000000E+00   0.0000000000000000E+00 
atom   1.8867570633617024E+01   5.5281232159594662E+00   4.0402061287009154E+01  H   0.0000000000000000E+00   0.0000000000000000E+00   0.0000000000000000E+00   0.0000000000000000E+00   0.0000000000000000E+00 
atom   1.7123126645906687E+01   4.2976561427998469E+01   2.4385687448462761E+01  O   0.0000000000000000E+00   0.0000000000000000E+00   0.0000000000000000E+00   0.0000000000000000E+00   0.0000000000000000E+00 