begin
comment source_file_name=OUTCAR_0_1
lattice 15.246000000 0.000000000 0.000000000
lattice 0.000000000 11.884000000 0.000000000
lattice -5.989357159 0.000000000 12.091965796
atom 9.55381 0.98518 10.18385 S 0.0 0.0 -0.125331 0.028415 0.031193
atom -3.29184 6.92718 7.95410 S 0.0 0.0 0.125331 0.028415 -0.031193
atom -0.29717 10.89882 1.90811 S 0.0 0.0 0.125331 -0.028415 -0.031193
atom 12.54849 4.95682 4.13787 S 0.0 0.0 -0.125331 -0.028415 0.031193
atom 12.27754 0.91269 4.18624 S 0.0 0.0 -0.126394 -0.041931 0.027223
atom -0.02622 6.85469 1.85974 S 0.0 0.0 0.126394 -0.041931 -0.027223
atom -3.02090 10.97131 7.90573 S 0.0 0.0 0.126394 0.041931 -0.027223
atom 9.28287 5.02931 10.23222 S 0.0 0.0 -0.126394 0.041931 0.027223
atom 9.06992 0.97924 6.12821 S 0.0 0.0 -0.013446 -0.068418 -0.051411
atom -2.80795 6.92124 12.00974 S 0.0 0.0 0.013446 -0.068418 0.051411
atom 0.18673 10.90476 5.96376 S 0.0 0.0 0.013446 0.068418 0.051411
atom 12.06460 4.96276 0.08223 S 0.0 0.0 -0.013446 0.068418 -0.051411
atom 12.03432 0.97092 0.07255 S 0.0 0.0 0.063364 0.002358 -0.040486
atom 0.21700 6.91292 5.97343 S 0.0 0.0 -0.063364 0.002358 0.040486
atom -2.77768 10.91308 12.01941 S 0.0 0.0 -0.063364 -0.002358 0.040486
atom 9.03964 4.97108 6.11853 S 0.0 0.0 0.063364 -0.002358 -0.040486
atom 3.17371 1.04936 7.41600 S 0.0 0.0 -0.099435 -0.033364 0.051184
atom 3.08826 6.99136 10.72195 S 0.0 0.0 0.099435 -0.033364 -0.051184
atom 6.08294 10.83464 4.67596 S 0.0 0.0 0.099435 0.033364 -0.051184
atom 6.16838 4.89264 1.37002 S 0.0 0.0 -0.099435 0.033364 0.051184
atom 6.20214 0.86278 1.15720 S 0.0 0.0 0.136972 -0.061507 -0.119929
atom 6.04918 6.80478 4.88878 S 0.0 0.0 -0.136972 -0.061507 0.119929
atom 3.05450 11.02122 10.93476 S 0.0 0.0 -0.136972 0.061507 0.119929
atom 3.20746 5.07922 7.20318 S 0.0 0.0 0.136972 0.061507 -0.119929
atom -0.14015 0.92814 9.51396 S 0.0 0.0 0.207624 -0.187454 0.034062
atom 6.40212 6.87014 8.62399 S 0.0 0.0 -0.207624 -0.187454 -0.034062
atom 9.39679 10.95586 2.57801 S 0.0 0.0 -0.207624 0.187454 -0.034062
atom 2.85453 5.01386 3.46798 S 0.0 0.0 0.207624 0.187454 0.034062
atom 2.61609 0.98875 3.46918 S 0.0 0.0 -0.379594 -0.045519 -0.051010
atom 9.63523 6.93075 2.57680 S 0.0 0.0 0.379594 -0.045519 0.051010
atom 6.64055 10.89525 8.62278 S 0.0 0.0 0.379594 0.045519 0.051010
atom -0.37859 4.95325 9.51517 S 0.0 0.0 -0.379594 0.045519 -0.051010
atom 6.28690 2.94842 8.73040 S 0.0 0.0 -0.101684 -0.045832 0.134656
atom -0.02494 8.89042 9.40755 S 0.0 0.0 0.101684 -0.045832 -0.134656
atom 2.96974 8.93558 3.36157 S 0.0 0.0 0.101684 0.045832 -0.134656
atom 9.28158 2.99358 2.68442 S 0.0 0.0 -0.101684 0.045832 0.134656
atom 5.85752 2.65845 5.03872 S 0.0 0.0 -0.067582 -0.177681 0.103192
atom 6.39380 8.60045 1.00726 S 0.0 0.0 0.067582 -0.177681 -0.103192
atom 3.39912 9.22555 7.05324 S 0.0 0.0 0.067582 0.177681 -0.103192
atom 2.86284 3.28355 11.08471 S 0.0 0.0 -0.067582 0.177681 0.103192
atom 0.14893 2.83315 5.76303 S 0.0 0.0 -0.063213 -0.002445 -0.183871
atom 12.10239 8.77515 0.28295 S 0.0 0.0 0.063213 -0.002445 0.183871
atom 9.10771 9.05085 6.32893 S 0.0 0.0 0.063213 0.002445 0.183871
atom -2.84574 3.10885 11.80901 S 0.0 0.0 -0.063213 0.002445 -0.183871
atom -0.06140 2.76184 1.61065 S 0.0 0.0 0.033374 -0.217794 -0.226789
atom 12.31272 8.70384 4.43533 S 0.0 0.0 -0.033374 -0.217794 0.226789
atom 9.31804 9.12216 10.48132 S 0.0 0.0 -0.033374 0.217794 0.226789
atom -3.05608 3.18016 7.65663 S 0.0 0.0 0.033374 0.217794 -0.226789
atom 11.42708 2.96625 3.53932 Cu 0.0 0.0 -0.056517 -0.018383 -0.066026
atom 0.82424 8.90825 2.50666 Cu 0.0 0.0 0.056517 -0.018383 0.066026
atom -2.17044 8.91775 8.55265 Cu 0.0 0.0 0.056517 0.018383 0.066026
atom 8.43240 2.97575 9.58530 Cu 0.0 0.0 -0.056517 0.018383 -0.066026
atom 5.35651 0.87942 8.18021 Cu 0.0 0.0 -0.068978 -0.042620 0.067357
atom 0.90546 6.82142 9.95773 Cu 0.0 0.0 0.068978 -0.042620 -0.067357
atom 3.90014 11.00458 3.91175 Cu 0.0 0.0 0.068978 0.042620 -0.067357
atom 8.35119 5.06258 2.13423 Cu 0.0 0.0 -0.068978 0.042620 0.067357
atom 8.29869 1.08857 2.02782 Cu 0.0 0.0 -0.013003 -0.079744 -0.061412
atom 3.95263 7.03057 4.01816 Cu 0.0 0.0 0.013003 -0.079744 0.061412
atom 0.95795 10.79543 10.06414 Cu 0.0 0.0 0.013003 0.079744 0.061412
atom 5.30402 4.85343 8.07381 Cu 0.0 0.0 -0.013003 0.079744 -0.061412
atom 5.09343 2.85216 0.88392 Cu 0.0 0.0 -0.071088 -0.013473 -0.002685
atom 7.15789 8.79416 5.16206 Cu 0.0 0.0 0.071088 -0.013473 0.002685
atom 4.16322 9.03184 11.20804 Cu 0.0 0.0 0.071088 0.013473 0.002685
atom 2.09875 3.08984 6.92991 Cu 0.0 0.0 -0.071088 0.013473 -0.002685
atom -3.71515 1.00895 11.42812 Cu 0.0 0.0 0.067641 0.039805 0.039650
atom 9.97712 6.95095 6.70983 Cu 0.0 0.0 -0.067641 0.039805 -0.039650
atom 12.97179 10.87505 0.66385 Cu 0.0 0.0 -0.067641 -0.039805 -0.039650
atom -0.72047 4.93305 5.38213 Cu 0.0 0.0 0.067641 -0.039805 0.039650
atom -1.02899 0.93052 5.35553 Cu 0.0 0.0 0.007293 -0.021110 -0.015108
atom 13.28031 6.87252 0.69045 Cu 0.0 0.0 -0.007293 -0.021110 0.015108
atom 10.28563 10.95348 6.73643 Cu 0.0 0.0 -0.007293 0.021110 0.015108
atom -4.02367 5.01148 11.40151 Cu 0.0 0.0 0.007293 0.021110 -0.015108
atom 8.30415 1.46530 11.99886 Cu 0.0 0.0 -0.140674 0.136237 -0.040072
atom -2.04218 7.40730 6.13909 Cu 0.0 0.0 0.140674 0.136237 0.040072
atom 0.95249 10.41870 0.09311 Cu 0.0 0.0 0.140674 -0.136237 0.040072
atom 11.29883 4.47670 5.95287 Cu 0.0 0.0 -0.140674 -0.136237 -0.040072
atom 11.29861 1.67802 6.16569 Cu 0.0 0.0 0.015271 0.116590 -0.074616
atom -5.03665 7.62002 11.97226 Cu 0.0 0.0 -0.015271 0.116590 0.074616
atom -2.04197 10.20598 5.92627 Cu 0.0 0.0 -0.015271 -0.116590 0.074616
atom 14.29329 4.26398 0.11971 Cu 0.0 0.0 0.015271 -0.116590 -0.074616
atom 9.14880 2.97575 4.96859 Cu 0.0 0.0 0.164959 0.084500 0.087098
atom 3.10252 8.91775 1.07739 Cu 0.0 0.0 -0.164959 0.084500 -0.087098
atom 0.10784 8.90825 7.12338 Cu 0.0 0.0 -0.164959 -0.084500 -0.087098
atom 6.15412 2.96625 11.01457 Cu 0.0 0.0 0.164959 -0.084500 0.087098
atom 1.15360 1.75527 11.30357 Cu 0.0 0.0 -0.063629 0.156987 0.058610
atom 5.10836 7.69727 6.83438 Cu 0.0 0.0 0.063629 0.156987 -0.058610
atom 8.10304 10.12873 0.78840 Cu 0.0 0.0 0.063629 -0.156987 -0.058610
atom 4.14828 4.18673 5.25759 Cu 0.0 0.0 -0.063629 -0.156987 0.058610
atom 3.85752 1.46054 5.30595 Cu 0.0 0.0 0.025586 0.159786 -0.058692
atom 8.39380 7.40254 0.74003 Cu 0.0 0.0 -0.025586 0.159786 0.058692
atom 5.39912 10.42346 6.78601 Cu 0.0 0.0 -0.025586 -0.159786 0.058692
atom 0.86284 4.48146 11.35194 Cu 0.0 0.0 0.025586 -0.159786 -0.058692
atom -1.16473 2.80106 10.28664 Cu 0.0 0.0 0.114949 0.029868 0.062123
atom 7.42669 8.74306 7.85131 Cu 0.0 0.0 -0.114949 0.029868 -0.062123
atom 10.42137 9.08294 1.80533 Cu 0.0 0.0 -0.114949 -0.029868 -0.062123
atom 1.82995 3.14094 4.24065 Cu 0.0 0.0 0.114949 -0.029868 0.062123
atom 8.42471 0.42545 8.25881 Cu 0.0 0.0 -0.006801 -0.023883 -0.023161
atom -2.16275 6.36745 9.87914 Cu 0.0 0.0 0.006801 -0.023883 0.023161
atom 0.83193 11.45855 3.83315 Cu 0.0 0.0 0.006801 0.023883 0.023161
atom 11.41939 5.51655 2.21283 Cu 0.0 0.0 -0.006801 0.023883 -0.023161
atom 10.93680 0.74156 2.02057 Cu 0.0 0.0 -0.002607 0.001704 -0.015858
atom 1.31453 6.68356 4.02542 Cu 0.0 0.0 0.002607 0.001704 0.015858
atom -1.68015 11.14244 10.07140 Cu 0.0 0.0 0.002607 -0.001704 0.015858
atom 7.94212 5.20044 8.06655 Cu 0.0 0.0 -0.002607 -0.001704 -0.015858
atom -4.22706 2.43028 9.33742 Cu 0.0 0.0 -0.057628 -0.032284 0.078709
atom 10.48903 8.37228 8.80053 Cu 0.0 0.0 0.057628 -0.032284 -0.078709
atom 13.48370 9.45372 2.75455 Cu 0.0 0.0 0.057628 0.032284 -0.078709
atom -1.23238 3.51172 3.29143 Cu 0.0 0.0 -0.057628 0.032284 0.078709
atom 5.96526 0.94478 3.42686 Cu 0.0 0.0 -0.017114 0.034111 0.052038
atom 6.28607 6.88678 2.61912 Cu 0.0 0.0 0.017114 0.034111 -0.052038
atom 3.29139 10.93922 8.66510 Cu 0.0 0.0 0.017114 -0.034111 -0.052038
atom 2.97058 4.99722 9.47285 Cu 0.0 0.0 -0.017114 -0.034111 0.052038
atom 0.87597 0.51577 7.53329 Cu 0.0 0.0 -0.012110 -0.004506 0.081390
atom 5.38599 6.45777 10.60465 Cu 0.0 0.0 0.012110 -0.004506 -0.081390
atom 8.38067 11.36823 4.55867 Cu 0.0 0.0 0.012110 0.004506 -0.081390
atom 3.87065 5.42623 1.48731 Cu 0.0 0.0 -0.012110 0.004506 0.081390
atom 3.84806 0.51220 1.61911 Cu 0.0 0.0 0.106207 0.025692 0.047083
atom 8.40327 6.45420 4.42687 Cu 0.0 0.0 -0.106207 0.025692 -0.047083
atom 5.40859 11.37180 10.47285 Cu 0.0 0.0 -0.106207 -0.025692 -0.047083
atom 0.85338 5.42980 7.66510 Cu 0.0 0.0 0.106207 -0.025692 0.047083
atom 3.47571 2.47425 9.12097 Cu 0.0 0.0 0.013369 -0.021692 -0.063355
atom 2.78626 8.41625 9.01698 Cu 0.0 0.0 -0.013369 -0.021692 0.063355
atom 5.78094 9.40975 2.97100 Cu 0.0 0.0 -0.013369 0.021692 0.063355
atom 6.47038 3.46775 3.07499 Cu 0.0 0.0 0.013369 0.021692 -0.063355
atom 13.93651 1.01727 2.61912 Cu 0.0 0.0 0.070095 0.058281 0.058871
atom -1.68519 6.95927 3.42686 Cu 0.0 0.0 -0.070095 0.058281 -0.058871
atom -4.67987 10.86673 9.47285 Cu 0.0 0.0 -0.070095 -0.058281 -0.058871
atom 10.94183 4.92473 8.66510 Cu 0.0 0.0 0.070095 -0.058281 0.058871
atom 3.78523 1.22643 11.52485 Cu 0.0 0.0 -0.055512 0.072701 0.045980
atom 2.47674 7.16843 6.61310 Cu 0.0 0.0 0.055512 0.072701 -0.045980
atom 5.47141 10.65757 0.56711 Cu 0.0 0.0 0.055512 -0.072701 -0.045980
atom 6.77991 4.71557 5.47887 Cu 0.0 0.0 -0.055512 -0.072701 0.045980
atom 7.33923 2.31025 6.84284 Cu 0.0 0.0 0.008001 0.031273 -0.008244
atom -1.07727 8.25225 11.29511 Cu 0.0 0.0 -0.008001 0.031273 0.008244
atom 1.91741 9.57375 5.24912 Cu 0.0 0.0 -0.008001 -0.031273 0.008244
atom 10.33391 3.63175 0.79686 Cu 0.0 0.0 0.008001 -0.031273 -0.008244
atom 2.25458 2.45880 1.69046 Cu 0.0 0.0 0.009284 0.010061 0.048810
atom 9.99674 8.40080 4.35553 Cu 0.0 0.0 -0.009284 0.010061 -0.048810
atom 7.00207 9.42520 10.40151 Cu 0.0 0.0 -0.009284 -0.010061 -0.048810
atom -0.74010 3.48320 7.73644 Cu 0.0 0.0 0.009284 -0.010061 0.048810
atom -2.07320 1.14799 8.21165 Cu 0.0 0.0 0.008891 0.031001 0.014345
atom 8.33516 7.08999 9.92629 Cu 0.0 0.0 -0.008891 0.031001 -0.014345
atom 11.32984 10.73601 3.88031 Cu 0.0 0.0 -0.008891 -0.031001 -0.014345
atom 0.92148 4.79401 2.16567 Cu 0.0 0.0 0.008891 -0.031001 0.014345
energy -573.700369
charge 0.0
end
