begin
comment       frame number       51
lattice   28.0069   0.0000   0.0000
lattice    0.0000  28.0069   0.0000
lattice    0.0000   0.0000  28.0069
atom       0.56526262299801      13.31517334680679       6.34522126057460     C  0.00  0.00      -0.03113424307455      -0.01537473276533      -0.00015747921029
atom       0.90032952776671      14.97008713320335       8.34814801930335     C  0.00  0.00      -0.00918702883818      -0.00621123467824       0.00569078114988
atom       1.22144598563829      22.64678760266016       4.42245898770571     C  0.00  0.00      -0.00640475619597       0.00398620895847       0.00850240190023
atom       1.06572501490317      14.18328710792346       3.92303174139759     C  0.00  0.00      -0.00334927089300      -0.00621053489691      -0.00707908580865
atom       1.62275720525955      21.37062188986548      17.55963435321880     C  0.00  0.00      -0.00479777831613      -0.01234629445177      -0.01383075643633
atom       1.67366171913499       8.54531739390388      22.53841032174025     C  0.00  0.00       0.03024889501062      -0.00416721250475      -0.01310658559641
atom       1.57960136982838       9.08630561150544      11.63757358555911     C  0.00  0.00       0.00885756614318      -0.01535898558112       0.01669466739678
atom       1.63309820104926       5.08902942212961      17.44145754223917     C  0.00  0.00       0.00318055010079       0.01347561878931       0.01519802190954
atom       1.60174664167610      13.54360133892586      15.98380463708957     C  0.00  0.00      -0.00914277689309      -0.00170769481885      -0.02660005239701
atom       1.77508606568939      17.37866243386567       7.84907198266061     C  0.00  0.00       0.00578322021348       0.02128793139007       0.01941973080386
atom      19.42017503029161       1.84646074163295      13.03284311649700     C  0.00  0.00       0.01496461886347       0.00759956901463       0.02436126347362
atom      19.98920982307874      10.07167913088219      20.37562704854361     C  0.00  0.00      -0.00454856413741       0.03094354715905      -0.06047735409984
atom      19.88050961896570       9.42323669072232      17.76602680405809     C  0.00  0.00      -0.00393495444235      -0.00815061193791       0.00862027080651
atom      20.32836026642741      12.56485006093525      21.00610457525624     C  0.00  0.00      -0.00833704700464      -0.00083921744336      -0.04110955866970
atom       2.04706619055359       4.89158108004898       2.06036182657225     C  0.00  0.00      -0.01662741018271       0.00818053485893       0.00378802667561
atom      20.19957603885057      11.10564526227436      15.77573862409358     C  0.00  0.00       0.01223748995540       0.00549500550399       0.02554327662469
atom      20.49549529567459      14.31191216707652      19.02566996711138     C  0.00  0.00       0.01146820995559       0.02489913778494       0.00171862924228
atom      20.59733903109143      13.63009591547120      16.42572519641251     C  0.00  0.00      -0.00926093855168       0.00165723624677       0.02021657587443
atom      20.75827949925510       2.28798263181872       3.10599451219084     C  0.00  0.00       0.00634967573579       0.02372679561522      -0.02353951792925
atom      20.87493849885538       1.18413668648834      23.00240055095743     C  0.00  0.00      -0.03167266336860       0.00841213897080       0.02028357808554
atom      21.05605175511753      15.51055897252136      14.42327650834872     C  0.00  0.00      -0.02492143128553       0.02449392954586      -0.01040836807155
atom       2.09589778195885      16.53692074122318       3.46040399095607     C  0.00  0.00      -0.03479375606366       0.01434664228727       0.02765182461407
atom      21.10788097034883      16.27212456961610       2.14013214980539     C  0.00  0.00       0.01789891290779      -0.00132139005110       0.04424729285422
atom      21.56208976987802       6.93830684758924       3.69752198938163     C  0.00  0.00       0.01190847181747      -0.00251621453919      -0.00743722503517
atom      21.79162413090577       4.47997729171169       4.62773289817370     C  0.00  0.00      -0.01161946725410       0.00690421952786       0.01533707188642
atom      22.37147250522815       9.06519531018642       5.03653857918100     C  0.00  0.00      -0.00959004801381      -0.02158297332834       0.00415667163388
atom      21.99024724602286      18.54068040466066       3.66228471707080     C  0.00  0.00       0.00637562882358       0.00562766580030       0.00031699823548
atom       2.07845902589428       8.18291624574512       9.21113091919115     C  0.00  0.00       0.04243780665518       0.04266981302250       0.02456611036710
atom       2.06772823560957       4.93377590878455      14.88921190162479     C  0.00  0.00       0.02793092128793       0.01798557539395       0.01079257455876
atom      22.52007313862244      20.78295180307453       2.37009325182745     C  0.00  0.00      -0.00622074103648       0.00546722692857      -0.03818909078255
atom      22.60417310262147      18.52966939056008       6.24586959096211     C  0.00  0.00       0.01519242748229       0.02153696228349      -0.01426571122083
atom      22.78108107796566       4.14500168473142       7.07959557786557     C  0.00  0.00       0.00146453060873       0.00393117466517      -0.02151235386404
atom      22.88060674484136       1.36715380361950       1.34196273054029     C  0.00  0.00      -0.01335137583922       0.01268993180563       0.00614549093632
atom      23.39906841916602       8.65455073811154       7.37971566407711     C  0.00  0.00       0.00532687209478      -0.02671960290704      -0.00324999410307
atom      23.28654805499568      23.04697583038289       3.43567426847633     C  0.00  0.00      -0.02370347899049      -0.00722062769825       0.01401692700955
atom      23.30770405709121      14.69991553748173       1.31234942980960     C  0.00  0.00       0.02988886561591       0.00739620546839       0.00973104755390
atom      23.62595792713298      20.72359991940420       7.36533333788752     C  0.00  0.00      -0.01494553750117      -0.00436941457723      -0.01159860633750
atom      23.74919548111163       6.21793952686716       8.36146836213127     C  0.00  0.00      -0.01452196881092       0.00574999631110      -0.00661268971557
atom      23.69539966201250       1.80332988174515      22.58079619886890     C  0.00  0.00      -0.00143222453887      -0.01701969562929       0.03914787389846
atom      23.74011159054143      16.01032658012861      13.94950307715662     C  0.00  0.00       0.02671363629700       0.01167469583817       0.00710334458671
atom      23.69263037177299      23.01492847615055       6.02819725607590     C  0.00  0.00       0.03090908136976       0.00766343819721       0.00024104051061
atom      23.93729685619517       3.49264335463377      20.41033270701973     C  0.00  0.00       0.00919514494476       0.01709432063394      -0.02579032628563
atom      24.09293624876284       6.11980551889360      20.84728213934916     C  0.00  0.00      -0.00997591661876      -0.00482128222309       0.01042457630781
atom      24.00778229306282       2.57052805836606      17.87986297682389     C  0.00  0.00      -0.00455418111259       0.02127733780004       0.01408291231464
atom      24.36851301843411       7.77414790111594      18.85669000114838     C  0.00  0.00       0.00728215431556      -0.01112273924305      -0.02897229585797
atom       2.40133730236385      18.27619010773118       5.46848410196132     C  0.00  0.00      -0.02387232872724      -0.02665865511050       0.00071933460532
atom      24.30262341809173       4.22886811652232      15.85071692999344     C  0.00  0.00       0.00484431503534       0.02460890060767       0.05091345002168
atom      24.57486502131593       6.80640747477542      16.36314469082321     C  0.00  0.00      -0.01106774001053      -0.00809060833390       0.01481757318097
atom       2.55552089910938      20.99178673481072      15.15244931201936     C  0.00  0.00      -0.01196261031803      -0.00927319366083      -0.00912422098771
atom       2.71032952672826      20.26364681415319      19.63255479434139     C  0.00  0.00      -0.01124250141944      -0.01381761320272       0.02292766011508
atom       2.91227106866145       2.45113971135536       1.97703613252853     C  0.00  0.00       0.02596275148344      -0.00735802028859      -0.01715280381037
atom       2.94567450107410       6.04261680483679      21.82943821979898     C  0.00  0.00       0.00080183056371      -0.00695773174189       0.02238614071066
atom       3.03909829140582      11.10690421862281      15.79816268176167     C  0.00  0.00      -0.01923826194167      -0.02644234121965       0.01715115797532
atom       3.30317050863200       0.42348132048328      15.78986021939246     C  0.00  0.00       0.01843501212655      -0.01694049181028      -0.00272985204716
atom       3.35596878919189      20.83668710451825       4.96654232282062     C  0.00  0.00      -0.00964260224034       0.00334574934803      -0.00177095381633
atom       3.49077336338270       5.93730151407153      19.07911557710000     C  0.00  0.00       0.00458960418599       0.03417597828327       0.00351620783906
atom       3.50676210801304      10.20578589408849      13.17644484397461     C  0.00  0.00      -0.01576707683740       0.03524808166247      -0.02917341462918
atom       3.71425114722078       6.93385307017225       2.16779278825696     C  0.00  0.00       0.01583969922504      -0.02621524810238      -0.02335639855712
atom       4.06738839926144       0.90441709975768      18.22577754826459     C  0.00  0.00       0.01690256262368      -0.01197479828271       0.00954690395342
atom       4.42010004541938       5.73315658633433      14.00600045314985     C  0.00  0.00      -0.00004283627349       0.00007030792404       0.01452791462944
atom       4.45591809675765       8.81639527153458       8.06824535084348     C  0.00  0.00      -0.01997751952092       0.01304614196996       0.03460308507785
atom       4.60170152811786      19.38723262836131      14.84180364126549     C  0.00  0.00      -0.00170026773679       0.00889322702943      -0.01193626467997
atom       4.70504340603616      18.53609639426253      19.36694598787760     C  0.00  0.00      -0.01481095785198       0.02740799907197      -0.02141934581367
atom       4.68367180325163      15.01777625101095      21.98750620417810     C  0.00  0.00      -0.02004006000546       0.00828457187399       0.01724334130744
atom       5.09516468034341       0.73854104393103      13.87990269413373     C  0.00  0.00       0.00092264071214      -0.01538844294151      -0.02052774006482
atom       5.48615255730706       2.02433963710547       1.63103116668440     C  0.00  0.00      -0.01691452615592      -0.02364715344543       0.01337825819524
atom       5.56529062154689      18.17377428328182      16.93444452252286     C  0.00  0.00      -0.01121694231569       0.00664955538263      -0.00170962546737
atom       5.80773015378948       6.94987602539433      18.21585025507467     C  0.00  0.00      -0.04085913683828      -0.01995966671282      -0.02257804719472
atom       5.84797062440063      23.80132049480179      20.33336184060250     C  0.00  0.00      -0.00601448902398       0.01619099641862       0.00847745640679
atom       5.71112065406504      11.01969561797799      12.00591976497390     C  0.00  0.00      -0.00978097745120      -0.01288824094874      -0.01429463243257
atom       6.03985998619336      17.38708611647926      21.48048363992106     C  0.00  0.00      -0.01416082776298       0.02470914254064       0.03124692581530
atom       6.28980821924360      15.30124084155828       5.81685376835819     C  0.00  0.00       0.03519998207379       0.00521082786574      -0.02594335988846
atom       6.28489675619149       6.68947627539695      15.64294578172007     C  0.00  0.00      -0.03190396041447       0.00189516824039       0.01068250606892
atom       6.21894093268018      10.24451402947411       9.48961199763336     C  0.00  0.00      -0.03613078102470      -0.00723162094667       0.01779161827859
atom       6.31788496545036       6.34487704305354       1.88161305527682     C  0.00  0.00      -0.01452718253191       0.01276691691702       0.00597988717739
atom       6.45502600972569       1.86403776815816      18.82670788703548     C  0.00  0.00      -0.00594413302067      -0.02755083757560      -0.02359709125486
atom       6.46120684026565      15.24191875862471       3.18591993860206     C  0.00  0.00       0.01388008262615       0.00267245930061       0.00169243909246
atom       6.88473334714225      23.20241791534934      22.67245836092907     C  0.00  0.00       0.00411213975156       0.02956970640573       0.00415711786734
atom       7.00582937265723      23.14553099758841      18.09201705631708     C  0.00  0.00       0.02537267169969       0.00533190321514      -0.00400863405831
atom       7.25653441638650       3.90640691872947       1.63530442281134     C  0.00  0.00      -0.00124461093655       0.00013539638537       0.00365188717107
atom       7.47830975395615      17.23590272963943       7.05336803500846     C  0.00  0.00       0.00275472262831      -0.00358822635056      -0.03338878976689
atom       7.45843641627854       1.75521184520691      14.39098149612639     C  0.00  0.00      -0.00119136537061      -0.02061527632403       0.00244344249314
atom       7.66455532079861      17.18740705610811       1.93023962084417     C  0.00  0.00       0.00695093893017      -0.01718865446701      -0.03084250449137
atom       8.10983815721492       2.36361393951132      16.86042790982633     C  0.00  0.00      -0.02079027199241      -0.03343778377366       0.00151109854970
atom       8.70399708903091      23.10776781228328       1.16594726290791     C  0.00  0.00      -0.00203495383067       0.01723054024080       0.04285031105601
atom       8.83163864029691      18.99352654844047       5.71875038889875     C  0.00  0.00       0.01991533200771       0.04432461321015       0.03536958580820
atom       8.91990356032860      19.07642313498949       3.14553197668267     C  0.00  0.00       0.01850267271402      -0.02065080668362       0.00854816111910
atom       9.25332611627890      22.09010717579098      22.79404897927606     C  0.00  0.00      -0.01950463477124       0.00170551220910      -0.00766728419192
atom       9.25772876519444      21.77967364228080      18.13706086403465     C  0.00  0.00      -0.00771126555733       0.00479700987832       0.03685779641670
atom      10.01185807457199       3.21697714850787       1.42406984546297     C  0.00  0.00      -0.00740619548210      -0.01933827375351       0.01791636629680
atom      10.31927225143639      21.33321872233318      20.55810516524976     C  0.00  0.00       0.01633843985516      -0.00703486969450      -0.01430228159804
atom      10.44275664308293      20.88866563686905       1.75553501865767     C  0.00  0.00       0.01907653069573       0.04238720455461       0.01712312258384
atom      10.51730009213285      20.82407943563245      15.84969514641834     C  0.00  0.00       0.00420284918658       0.01944622552848      -0.02736605453430
atom      10.61159947479796       3.29555547609562      17.40192292222843     C  0.00  0.00       0.02224126756244      -0.00598676495151      -0.00545957416908
atom      11.35668373346947       3.03845290289726       4.00606859104462     C  0.00  0.00       0.00273516093903      -0.00396795674542      -0.00287871079614
atom      10.90995117078665       7.00308594106346      22.92174580297235     C  0.00  0.00       0.02537868905759       0.00242073986602      -0.00668630824857
atom      11.66586406501001      13.60725683450454      11.56277575381529     C  0.00  0.00      -0.00107515722836      -0.06458492710352      -0.02613947602937
atom      11.45309263430415      11.24426535372058      20.75183850606787     C  0.00  0.00      -0.01941580293128       0.00406236643923       0.02439088679474
atom      11.93303018355729      14.26664458960287       9.08049044153572     C  0.00  0.00      -0.01341491380056       0.04029128219391      -0.01273963651207
atom      11.62672297757803      10.96542187592108      11.99648280689986     C  0.00  0.00      -0.00158625449384       0.02875342196209       0.03104776637497
atom      11.93084051118044       4.62937085553685      23.60622385120762     C  0.00  0.00      -0.00258559015356       0.01325933057474      -0.01540042680904
atom      12.28256620611507      12.64199157734468       7.05499857260054     C  0.00  0.00      -0.00522229757113      -0.01630939741795       0.00075593441393
atom      11.90451173461828       9.26628908562849      10.07085986002535     C  0.00  0.00       0.00534487851749       0.02119974393072      -0.01158537902002
atom      12.23652936283347      23.02356785825535      14.81600374161175     C  0.00  0.00      -0.01901187958362      -0.00758407371612      -0.00227708538352
atom      12.46990948198129      10.08789622646139       7.64014872827739     C  0.00  0.00      -0.02494487695496       0.00425342818533       0.00070903186664
atom      12.39107545760619       1.02235729668825      17.79745979189836     C  0.00  0.00       0.03688789648862       0.01538505690126       0.01609691701472
atom      12.32325529270937       8.61331477746391      21.29195691937877     C  0.00  0.00      -0.00945424965555      -0.00886938310142       0.00707649520412
atom      12.40349283377350      13.55043968122777       4.38690875982048     C  0.00  0.00       0.01301115809959      -0.00906402549784      -0.01960411136260
atom      12.41637711306694      13.17893988440104      22.70268829456353     C  0.00  0.00      -0.01806426161646       0.00992237157577      -0.00725760308394
atom      14.17623021082320       3.86987458556264      22.52508373891956     C  0.00  0.00       0.01421345586998      -0.00230148516454       0.00128729258013
atom      14.63383698906488       7.81528994858788      20.30453904620016     C  0.00  0.00      -0.00473928055894       0.00697546152892      -0.00082257278410
atom      15.13735845750842      14.19904602587378       3.67858256014013     C  0.00  0.00       0.01726717157625       0.01353582316611       0.01949959089096
atom      15.50446512199622      16.87591876948206      15.35393123412904     C  0.00  0.00       0.01494664890379       0.00478093758965      -0.00670529474037
atom      15.53514997045982       5.46287082672379      20.94941847311323     C  0.00  0.00       0.00763775632235      -0.00899798532847       0.00564286293180
atom      15.66588525191157      21.56470882969673       8.34499552527528     C  0.00  0.00      -0.03099874197736       0.00268797701019       0.02172968856534
atom      16.13543250818794      17.40416327793748      12.85254200132443     C  0.00  0.00       0.00081403901110       0.00795565411847       0.01603479604136
atom      16.33172442033424      18.55299554677153      17.17980829563037     C  0.00  0.00      -0.00951232514713       0.02594379512125      -0.00066375327184
atom      16.41148297672612       7.33417697578861      12.96003120253801     C  0.00  0.00       0.01665916176619      -0.01599755626324      -0.02978153453806
atom      16.62206891764230       9.76438355829383      11.95592708330311     C  0.00  0.00      -0.00186722581386      -0.01451691778126      -0.00029488035288
atom      16.75123833516518       2.60635547629525      12.20574048370277     C  0.00  0.00       0.02812769773575       0.00288875710384      -0.01958502815194
atom      16.71250837532842       5.27878149433968      11.29048724001670     C  0.00  0.00       0.00778737769325       0.01406232263999       0.00457787373426
atom      17.02297871322039      10.17050382989803       9.42776583241596     C  0.00  0.00       0.02764430366091      -0.00605706815919      -0.00626572386830
atom      17.23963792575420       5.78169023480672       8.74007893024026     C  0.00  0.00      -0.01900859272225      -0.02280553987335      -0.00668222670233
atom      17.39808783174766       8.16974619237416       7.76139118060545     C  0.00  0.00      -0.01214581173569       0.01401527996887      -0.00187319589941
atom      17.50460473559730      19.56330149152133      12.11505089011113     C  0.00  0.00      -0.01734577914883      -0.01107508187124      -0.00521215269046
atom      17.41962516249017      20.83330691036085      16.45202329236788     C  0.00  0.00       0.01743826974646      -0.01103984901942       0.00639022836503
atom      17.83627238583493      20.01558940032028       9.34414235834574     C  0.00  0.00      -0.03745064550121      -0.01471529773524       0.00432980346772
atom      18.10581605197038      21.31225694006681      13.97575292340454     C  0.00  0.00       0.01160930864168       0.01988094256438      -0.00074703631305
atom      -0.16044220282938      13.76201584092030      14.90275910789337     H  0.00  0.00       0.00649503324410      -0.01386316547284       0.00253542819586
atom      -0.02852651633868      22.47982231473306      17.74582228645179     H  0.00  0.00      -0.01452842090472       0.01483210010418       0.00595766733806
atom       0.10738083473902      22.86473844936365       6.16795128424366     H  0.00  0.00       0.00354306661634      -0.00642247751951      -0.00740302194458
atom       0.02456190035297       5.11768482311915       1.93450145161922     H  0.00  0.00      -0.00573025998653       0.00916633977822       0.00612731851394
atom      -0.02184078076739       4.31223869421258      18.34085717829095     H  0.00  0.00       0.00168433347445      -0.00156018444016      -0.00385929891079
atom       0.05845292890787       8.79847024737662      21.41466885557913     H  0.00  0.00      -0.01994682257500       0.00593312816514      -0.01923458804934
atom      -0.05153396589991       8.31725704955142      12.69824209382498     H  0.00  0.00       0.00482757834351       0.01150224283250      -0.01115032196108
atom      -0.50712585691694      11.49330115784353       6.58425160240150     H  0.00  0.00       0.01986992562997       0.01945588787743      -0.00109725717109
atom      -0.06840111982570      21.96485565992461       2.93932821120612     H  0.00  0.00       0.00633562813523       0.00543864671078       0.00359283936660
atom       0.35630730173764      14.47279374515153      10.28648453735696     H  0.00  0.00       0.00596417616749      -0.00145909733455      -0.00822388161691
atom       0.64271489742501       7.19353976114213       8.29857670246042     H  0.00  0.00      -0.01881059462763      -0.01642710343496      -0.02174445771751
atom       0.83068591728105       3.91604107461716      13.68107463771195     H  0.00  0.00      -0.01140356469128       0.00043158097431      -0.01155509165467
atom       0.64844056048441      12.97715177681321       2.31159186347769     H  0.00  0.00       0.00237815154239      -0.00150450067444       0.00094003175570
atom       1.04349250524776       8.65633729786602      24.41350614370932     H  0.00  0.00      -0.00460812434136      -0.00195350199305       0.03444362653962
atom       1.18178961922696      13.92520242108588      17.87906513864410     H  0.00  0.00      -0.00836881443996       0.00774146725630       0.03188432501809
atom       1.27385598512887       0.10098246042601      15.55295649729987     H  0.00  0.00       0.01024843794779      -0.00876849651946      -0.00904322772328
atom       1.76319524102019       0.78298014911859       1.79437337359535     H  0.00  0.00      -0.01283316888272       0.00161684692560       0.00370472010819
atom       1.49840433643481      21.78142553380786      13.57156197698670     H  0.00  0.00       0.00855243821775       0.00303032284880      -0.00031961412304
atom       1.89961301894657       9.61683953762978      16.77285337577576     H  0.00  0.00       0.00886637988179       0.01019651025545      -0.00511359529046
atom       1.74098897996169       4.45979499239974      22.52196203318378     H  0.00  0.00       0.00341337293861       0.00526185770086      -0.00936545628990
atom      19.13232942985731      23.13497648916711      13.66951525650492     H  0.00  0.00      -0.00969816040140      -0.01827336604701      -0.00813816652464
atom       1.90501373902463      24.55967013354345       4.08761228013276     H  0.00  0.00       0.00281313954428       0.00238124487189      -0.01047684320657
atom      19.04490791621951       2.86723060157833       2.02991973285073     H  0.00  0.00       0.01167833128460       0.00151343398970       0.00183959015484
atom      19.48498817909254      -0.09616499446636      13.89422773056327     H  0.00  0.00      -0.00138861858115       0.01689944744196      -0.00640998246458
atom      19.36786045789522      21.11614527625573       8.96783685693397     H  0.00  0.00       0.05210931895009       0.02475499879703      -0.00610758579890
atom      19.85103384669691       8.72381170429556      21.74772137227573     H  0.00  0.00      -0.00609681567643      -0.03688976880220       0.03179825921375
atom      20.17512052732926      16.78952749121587       0.50868342096418     H  0.00  0.00      -0.02464564581965       0.02244971158712      -0.03610805381674
atom      19.75670310374698       2.97434761619941      23.46474937127158     H  0.00  0.00       0.01583738200433      -0.01987029093093      -0.00305925537540
atom      19.71649038599125       7.45743775325808      17.23910618797668     H  0.00  0.00      -0.00389371015553      -0.00431050648262       0.00431986337742
atom      19.84978960138404       0.39420420886387      21.31738582805218     H  0.00  0.00       0.01723371837763       0.00495683735282       0.00901178203976
atom      20.26534634125151      14.96680566547105      12.55916056671752     H  0.00  0.00      -0.00556963462609      -0.00395680099211       0.01314274658076
atom      20.12708318253129       3.27302665004373      14.46671421088261     H  0.00  0.00      -0.01085625055157      -0.01922933044137      -0.01016641025551
atom      20.22020248734785      17.36880352044423      14.94517332967636     H  0.00  0.00       0.00376892394008      -0.01776070585868      -0.00203665658573
atom      20.30403796417060      13.16786051606002      22.89191458924570     H  0.00  0.00       0.00188971198729       0.00917226208539       0.02543152934954
atom      19.72975461327177      15.14959491461787       3.18482395937373     H  0.00  0.00       0.00389917089912      -0.00124948917333       0.00620412744051
atom      20.10015803597535       0.77795524373451       4.25001794191502     H  0.00  0.00      -0.00111377491835      -0.01687289450598       0.01791920316723
atom      20.84864226897243       7.07258870771485       1.81059330037720     H  0.00  0.00      -0.00897243899919       0.00712277460932      -0.01069236273160
atom       1.94650053905123      20.88648054458701      21.48498860756450     H  0.00  0.00       0.00887981824114      -0.01306490452613      -0.00881764067398
atom      20.34072717036469      10.47763916936756      13.81002365244511     H  0.00  0.00      -0.00142108903684       0.00241921153629       0.01103162511678
atom      20.88580637886207       1.96204246598535      11.56046184244428     H  0.00  0.00      -0.01014425588609      -0.00280623607832      -0.00274590179554
atom      20.65513562226962      16.33957175591043      19.66006359871890     H  0.00  0.00       0.00030537295539      -0.01963199373124      -0.01638979337373
atom      20.48887475541779      -0.17108231297426      24.61781636163649     H  0.00  0.00       0.00805439535732       0.01392638384593      -0.01725062681462
atom       2.18071316683369      18.59355028438944       9.48981125213730     H  0.00  0.00      -0.00546010933701      -0.00136344551018      -0.00679039053738
atom      21.93998271473772      10.99982994131543       4.59054161228029     H  0.00  0.00       0.00059501177085       0.00231455058019      -0.01368019645128
atom      22.48359867377326      20.73660497737876       0.29442008962072     H  0.00  0.00      -0.00948750514483      -0.00193169079344       0.00381235997921
atom      22.36856551327657      -0.19335240123042       0.20646607585189     H  0.00  0.00      -0.01177565550629      -0.01948064662979      -0.01337993605995
atom      22.67427433158214      16.86299682871829       7.38911113170995     H  0.00  0.00      -0.00789446834408      -0.01238181448246       0.00239300265826
atom      22.62326925482095      13.08306382344846       0.28024981380126     H  0.00  0.00       0.00561561944562      -0.00898484123920      -0.00748632559976
atom      22.75138382883475       2.23387800088137       7.80527731290921     H  0.00  0.00       0.00551980141926      -0.00039830960535       0.00642721763717
atom      23.56124823754929       2.78865084438522       0.03531290381929     H  0.00  0.00       0.00004243856450       0.00898693356997       0.00246849895836
atom      23.30004215870605      24.89245431867103       2.45737206514484     H  0.00  0.00       0.00749286019852      -0.02078091294768       0.00011444057825
atom      23.91610158679994      10.27271443984660       8.37390583761377     H  0.00  0.00       0.01159997638957       0.02193141681286       0.02427007540046
atom      23.69047046594205       6.92769556627090      22.77390199770707     H  0.00  0.00       0.01191051507932      -0.01357970421269      -0.01775329085191
atom      23.97034132606358      17.39411191897740      12.42485227064657     H  0.00  0.00       0.00187572039555      -0.00150113018027       0.00056222476209
atom      23.64518738127641       0.64066626594734      17.43846076835023     H  0.00  0.00       0.00301635433435      -0.01782435167888       0.00417604447044
atom      24.16267600569375      20.47002142831453       9.31936563739988     H  0.00  0.00       0.00520379555443       0.01008349819592       0.00278438939390
atom      24.29977161398362       9.78808351437602      19.18651183088640     H  0.00  0.00       0.00804893623943      -0.00040636556975      -0.00236124227985