begin
comment       frame number       26
lattice   26.9097   0.0000   0.0000
lattice    0.0000  26.9097   0.0000
lattice    0.0000   0.0000  26.9097
atom       0.86777766879146       4.73017440716062      23.07803416989450     C  0.00  0.00       0.01525757175204       0.02812286837187       0.00767676377891
atom       0.92344556769964       7.39422086244662      23.16431125871410     C  0.00  0.00       0.03014815390882      -0.04195881041955      -0.00042456790795
atom       0.94210594503600      20.61150684046838       6.09307292350435     C  0.00  0.00      -0.00704064954080      -0.01080150602966       0.01332323186951
atom       1.18009523263683      13.93158928309510       5.06653539712602     C  0.00  0.00       0.04997677384680       0.01353658518627       0.04138015061819
atom       1.33693232804421      18.20765303990029       5.14033073491527     C  0.00  0.00      -0.01933852067018      -0.00592515572910       0.04267725720051
atom       1.38956443208569      23.20454531249680      23.41927705598249     C  0.00  0.00       0.03151728064164       0.01400490172248       0.01255850923611
atom       1.82181636962522       3.55683451694793       4.19715836971545     C  0.00  0.00       0.00951179232419      -0.01518136609870       0.00003013287281
atom       1.93010598026109      22.61858655660978       4.86532132363768     C  0.00  0.00      -0.01064809968863       0.03874445962677       0.00957790938166
atom      19.18562156059880       5.08133191767783      15.46062504461108     C  0.00  0.00       0.00686545475555      -0.00031286254394      -0.00141992125559
atom      19.35681466944991      12.08394712779837      18.83717197075168     C  0.00  0.00      -0.02045424485601      -0.00063633174477      -0.05051339851463
atom      19.84793876029054       4.48762733650928      19.95694863487657     C  0.00  0.00      -0.03665277286706       0.03791783805779      -0.01596994932413
atom      19.84897929895120      15.12622189569768      22.87602378363925     C  0.00  0.00       0.00795808365606       0.02138188179514       0.03298008608648
atom      20.78430616570431      11.28637623729505      20.79066945075284     C  0.00  0.00       0.02216061273585       0.00357881927293       0.04504645461312
atom       2.05963825454327       3.52254051999445      21.03751468923564     C  0.00  0.00      -0.02596577635806      -0.02600244209892       0.02872721021378
atom      21.07198275873072      12.86237451643032      22.92974594949219     C  0.00  0.00      -0.00278042747511      -0.00495369882672      -0.01619907273626
atom       2.05865727001538       8.70895602345173      21.23259678855115     C  0.00  0.00       0.00697188400409      -0.01839352478574      -0.00882596554350
atom      21.28535308636657      21.54734568796799       1.26619872554444     C  0.00  0.00       0.02828998240115      -0.01025817677969      -0.01731363112125
atom      21.44581975051520       3.75650409878441      14.98171125809737     C  0.00  0.00      -0.02578868698364       0.01655234291884      -0.01451789051939
atom       2.21243465747524      17.27595181855888      12.62941507273572     C  0.00  0.00      -0.00653450372409       0.01106424965526      -0.00024719339937
atom      21.97339262116340      20.28656704785992      16.52553208787922     C  0.00  0.00      -0.01378125726092      -0.02020685100752      -0.04278430348827
atom      21.99523911562651       3.19102215235676      19.42027298332294     C  0.00  0.00       0.01820814150190      -0.01706033607785       0.03388462680152
atom      22.33938494050254      17.76311057769053      16.11761382861492     C  0.00  0.00       0.02082307344798      -0.02582244240059       0.01374542983967
atom      22.54109394623759      21.32017041671596      18.80166706526202     C  0.00  0.00      -0.00971472635960       0.03628050159705      -0.01709449141396
atom      22.77681231204530       2.83753697859434      16.97503320402329     C  0.00  0.00       0.02207955542897      -0.00684567565821       0.00476132712335
atom      23.08256795470827      17.61621999296436       9.09382346503723     C  0.00  0.00      -0.00675566253560       0.01002024050536       0.01922195708198
atom      23.21024250558276      10.74608866446688       6.42745524858982     C  0.00  0.00      -0.00063910000063      -0.01071026420112      -0.01750375212366
atom      23.20610999039406      13.13320216056463       7.34752492810309     C  0.00  0.00      -0.01020779966114       0.04403676760931      -0.02926807987790
atom      23.24709164553392       8.63688924442392      23.07788422093444     C  0.00  0.00      -0.02358363360717      -0.00432151522382      -0.00947862331146
atom       2.30337149975288       5.79536678180180       5.46449314086182     C  0.00  0.00      -0.02326111266641      -0.00665200801019      -0.02482022023348
atom      23.42144911830320      16.41150741736408      18.17305075088637     C  0.00  0.00      -0.01547708733052      -0.03832078326769      -0.05826483082856
atom      23.32038769609066      23.69359981253680      22.91884678493254     C  0.00  0.00      -0.01779935351805      -0.00099452641627      -0.01045305007959
atom      23.49199528153889      19.96249548336916      20.69322608404638     C  0.00  0.00       0.01486469503253      -0.03875294332114       0.04631677777544
atom      23.63703978234996      15.26836094871046       5.61195616596167     C  0.00  0.00      -0.03293993592322      -0.03624991060640       0.00264015770676
atom      23.68225866703034      10.31996956307719       3.84958476077349     C  0.00  0.00      -0.00154715763277      -0.01966756859558       0.00358031910547
atom      23.88945594907403      17.31265140438127      20.45541616876282     C  0.00  0.00       0.02961775130113       0.05235164183206       0.03019021308976
atom      24.09538364466998      14.73180821059099       3.05186873023499     C  0.00  0.00      -0.04376846216989       0.01212456455770       0.00141332022217
atom      24.12822415673281      12.25013598609350       2.15586508644466     C  0.00  0.00      -0.00905694395506       0.00587717888759       0.00808852592996
atom       2.59198216762264      17.85761537108956       2.96559870839489     C  0.00  0.00       0.01042654127245       0.02407990867009      -0.01486774407314
atom       2.80707989351613      14.89786892874381      11.81328222421694     C  0.00  0.00       0.00615184342270      -0.03848003833346      -0.00728195304102
atom       3.22561509353816      22.36163369284568       2.66106482691247     C  0.00  0.00       0.01128296912540       0.01912939133115      -0.01925453110268
atom       3.30317749772210       4.70821166337358      19.13724035704780     C  0.00  0.00       0.00893665886741       0.04385176394310      -0.01610699757971
atom       3.33947550028568       7.40093362306169      19.24191782799537     C  0.00  0.00      -0.01768396792723      -0.01800947606706       0.01971913646369
atom       3.28801758483517      19.36927644313314      11.47513711396616     C  0.00  0.00       0.00566176819777       0.01989305037709      -0.00160170033655
atom       3.48083207335892      20.01633281647511       1.78545164735608     C  0.00  0.00       0.02614244640740      -0.05147747984534      -0.05045942888879
atom       3.76866395770362       1.71353965668704       4.00486748164679     C  0.00  0.00      -0.04064967784807       0.00790829496217      -0.01273336930470
atom       3.86491863922646      20.16662079915409      20.67233952966081     C  0.00  0.00      -0.00437505555198      -0.00825036534547       0.00280013772241
atom       4.10414900910169      11.30883508861591      17.80351026464873     C  0.00  0.00       0.01170881642125       0.00802883433176      -0.00998928181198
atom       4.59828743807484      14.50445976119113       9.93524839443763     C  0.00  0.00      -0.00921660525942      -0.00279724084750      -0.00005006317459
atom       4.69042032420630       6.32746366820442       6.27816345086140     C  0.00  0.00      -0.00475198126707      -0.00224170842813       0.00172036946887
atom       5.05581134982674      18.31126088686961      19.34393648805702     C  0.00  0.00       0.00864500518165      -0.01144653046963      -0.01865581367269
atom       5.10141957121056      22.36089268279871      21.35086033728273     C  0.00  0.00       0.02076140304194       0.00467159617380      -0.02117352507189
atom       5.13500377861800      19.00183890839354       9.55208699487385     C  0.00  0.00      -0.01864813105708      -0.01521816819624       0.02790604841858
atom       5.27508816215200       7.51757011587051       0.39587122372544     C  0.00  0.00       0.02060879031819      -0.02599063513282       0.00442170175586
atom       5.77247360590525      16.54207251448619       8.82959940799549     C  0.00  0.00       0.00217241047860      -0.00619086750480       0.00095984251113
atom       6.08779434065836       2.14874345331874       4.98428207550118     C  0.00  0.00       0.02237022583243       0.00796208406203       0.01601694841543
atom       6.24096351849160       9.86471697915715       0.88165142096814     C  0.00  0.00      -0.05056459348166       0.00457818870872      -0.00617856260247
atom       6.59865534761573       4.52772200077362       6.04703531963874     C  0.00  0.00      -0.00795150422411      -0.01061237187707       0.00951370023874
atom       6.89372327093030       5.36529986037505       0.43362249783758     C  0.00  0.00      -0.03504302498684       0.03146492371926      -0.00486028685682
atom       7.41598101738419      18.76802074782076      18.34823115052509     C  0.00  0.00       0.02205035974120      -0.02337620688115      -0.00571670250847
atom       7.53517940542299      22.82170906194859      20.39140593973054     C  0.00  0.00       0.00638952301996      -0.03673012273841      -0.00314774572192
atom       8.03336710821785      20.13348700805532       6.64537240914599     C  0.00  0.00       0.00877802930597       0.02225116389125      -0.01337464403827
atom       7.92187601653199       3.01011686865660      12.64214608990909     C  0.00  0.00       0.00055659843273       0.00017826899980      -0.01860241796232
atom       8.36914576276463       1.45439689656936      21.73060586087659     C  0.00  0.00      -0.01071890824671       0.03088100822036       0.02555320041083
atom       8.53734583158161      11.65813444897415      23.33797036424880     C  0.00  0.00       0.01288719086767      -0.00943777597082      -0.04417932583640
atom       8.70512562551163      20.95050979229782      18.92165484123177     C  0.00  0.00      -0.00500110230603       0.02151588022604       0.00540768260107
atom       8.70926259673312      10.21752684471881       1.26082206391403     C  0.00  0.00       0.03540815885557       0.01998573637423       0.02486157317077
atom       8.83302964694306       9.46872009502217      21.91023590872883     C  0.00  0.00       0.01412718000250      -0.01175171401004      -0.00541577645094
atom       8.91290723450006       7.55202991467380       7.96805931173086     C  0.00  0.00       0.04376679879873      -0.01545896701637       0.00679391447176
atom       8.98961721355638       1.49872390868758      10.71418866933440     C  0.00  0.00      -0.03553103408214      -0.01801946060975       0.01893294018250
atom       9.43909163689495       5.74947181962197       0.93267547193296     C  0.00  0.00      -0.03153736211201       0.03758179491236      -0.00875334975351
atom       9.40071532592758       4.93126643848526      13.53827216456404     C  0.00  0.00       0.01337816211494       0.02494892618901       0.02377704101477
atom      10.23955689552780      13.61682883342857      22.89528509666424     C  0.00  0.00      -0.01517156971932      -0.00306161308292       0.01089836132652
atom      10.34837057208158       8.25109214332409       1.32399091234897     C  0.00  0.00      -0.00694481083586      -0.03835684029284      -0.00123486135660
atom      10.88262087997079       9.15220761573303      20.21467292609103     C  0.00  0.00      -0.01629144871100       0.00625925326278       0.01120531930972
atom      11.20359700120688      17.28555993474559      12.46758329531759     C  0.00  0.00      -0.00526417113691       0.02016727786443       0.01074876019321
atom      11.49424810875187      14.79273310061296      11.72716142282517     C  0.00  0.00      -0.02349232493337       0.01636863611470       0.00090665559709
atom      11.43730125305958       1.66298089827878      10.03366350210874     C  0.00  0.00       0.02581874689846       0.03024277327203       0.02577685686379
atom      11.94232202031170      17.46871374206595      23.50937692507220     C  0.00  0.00      -0.02796558748823      -0.01883911058232      -0.03293823318860
atom      11.88489189157202       5.29762057667988      12.75122622652807     C  0.00  0.00       0.02737436948200       0.01477843278086       0.02272387360055
atom      12.18838362118273      13.40800646214042      21.16948466974558     C  0.00  0.00       0.01843532969937      -0.00968036762523      -0.01335475266888
atom      12.25604692430779       1.23089903104744      19.07656652623943     C  0.00  0.00       0.01818956164379      -0.00305487986517      -0.00576485122638
atom      12.41882158540403      19.10762386141274       0.97316307303319     C  0.00  0.00      -0.00332480542879       0.02023252226967       0.00432987916961
atom      12.52193733033408      11.16062476775843      19.88584075664009     C  0.00  0.00      -0.00462896393487      -0.01658752437746      -0.00433804558516
atom      12.57291748855849       0.84574043887089      21.64353439315364     C  0.00  0.00       0.00518790711026      -0.00031796983545       0.00898620290060
atom      12.97511718807705       3.65787308276692      11.10489432976278     C  0.00  0.00      -0.02911674088344      -0.04976226376469      -0.03592788438738
atom      13.13609998109679      14.99318354452803       3.28185181512127     C  0.00  0.00       0.00993441289796       0.02596574349527      -0.04053087006766
atom      13.27554095729396      18.71283278956603      13.29233439263004     C  0.00  0.00      -0.01440922097292      -0.01271186922664      -0.00370433988605
atom      13.33136381509572      12.78092226609012       4.52146931255080     C  0.00  0.00       0.00731945313594      -0.01723758333580       0.01684358001931
atom      13.42733580935378       4.61034993820647       1.41377183715807     C  0.00  0.00       0.02377770836842       0.00122033054486       0.03017897319753
atom      13.82987242688199      13.71821095178102      11.66942127353057     C  0.00  0.00      -0.01670908499796      -0.00204378400739       0.00436106910475
atom      14.33092600060719       1.04363756482556      17.48966404676055     C  0.00  0.00      -0.00793491415905      -0.00290671238776      -0.02473769313875
atom      14.73179162791268      21.28731172808784       6.99610454083905     C  0.00  0.00      -0.01517060468824      -0.02694726681269       0.03242373032625
atom      14.96040178728790       0.30977039327158      22.64252752688689     C  0.00  0.00      -0.00151570557964      -0.00009706119747      -0.01007268157010
atom      15.03915666887544      15.69081765650657       1.46748182887817     C  0.00  0.00      -0.02135903620711      -0.00993852960737       0.03591820237938
atom      15.28795690968833      18.67062773784769       7.23940637674172     C  0.00  0.00      -0.03027076988106       0.02044203305391       0.01505151622424
atom      15.50828297128480      11.32138560219926       4.18424362158434     C  0.00  0.00      -0.01067864472843      -0.01199023486245       0.01151535032807
atom      15.60342423225241      17.57813556875786      13.27299216978542     C  0.00  0.00       0.02594263820070       0.03824274263993       0.01520235871412
atom      15.94470743577818       1.88244171088350       8.35648230101948     C  0.00  0.00      -0.00978701538383       0.00574707020119       0.03368945427540
atom      15.87514296843216      15.15011542660667      12.46632420549336     C  0.00  0.00       0.02704005501433      -0.04525589275467      -0.00682289975392
atom      16.18666905812772      22.79620697419348       5.58075352044220     C  0.00  0.00       0.03422044539368       0.00491297955528      -0.05277787180302
atom      16.73014894413540       0.61538494462602      18.29891940720035     C  0.00  0.00       0.00785213495941      -0.02308839541934       0.03531530329560
atom      16.66448140032746       6.28223092419666      22.35231569013808     C  0.00  0.00      -0.01624886512387       0.00128220936096      -0.03488090232267
atom      16.96936271110880       0.27115453288810      20.98268377223765     C  0.00  0.00       0.01581334117300      -0.01022877645282      -0.01817297951713
atom      17.20702536087209      14.24679031703072       1.26359330023330     C  0.00  0.00      -0.00557196583391       0.01360569656375      -0.02806731317869
atom      17.16971236656794      17.69029707519329       5.79115687188300     C  0.00  0.00       0.00623032446294      -0.04180816633551       0.03267646452994
atom      17.41931411429471      12.04806656151105       2.54123409390411     C  0.00  0.00      -0.00132391268033      -0.03788615950977       0.02240283093928
atom      17.90387066536049      11.37894160851976      11.63763080477282     C  0.00  0.00       0.00723858019882       0.00327521264551      -0.00372061873733
atom      18.05675057337408      21.64246031433214       3.98327544908169     C  0.00  0.00      -0.01190681651671       0.01707139649338       0.02404322752028
atom      18.25409893841330      14.44698946083763      18.86728220149020     C  0.00  0.00      -0.02949830131122       0.00974285009761       0.00176788736954
atom      18.42091665726335       5.47839377861315      17.97910287421095     C  0.00  0.00       0.01033802542330       0.00023952249490      -0.05324422378857
atom      18.38600150441707      15.96914129389523      20.96561324558574     C  0.00  0.00      -0.01795338316214       0.00694525731943      -0.01061219023093
atom      18.55976407182175      19.12265925633309       4.16435475578250     C  0.00  0.00      -0.00083334695235      -0.01633805614161       0.00486450540849
atom       0.43023039090125      16.14290303571827       6.49153835548389     O  0.00  0.00       0.07459556017330      -0.00483491649385      -0.00808536451710
atom      18.96695667894653       4.96058154686109      22.30790081112731     O  0.00  0.00       0.03266861598495      -0.01424591367466       0.03267164815122
atom      19.50513983055215      23.07066341116450       2.44590738201267     O  0.00  0.00      -0.01778036381260       0.01263675912397       0.00039932953873
atom      21.97460635705447       9.02492332911072      20.73923179080022     O  0.00  0.00      -0.01254519892041       0.00372864548495       0.00548192697126
atom      23.56863122358326      17.72097558555211       6.42349507122870     O  0.00  0.00      -0.05518778386578      -0.00326409020169       0.01432756697835
atom      23.99784941026885      21.06463284019025      22.99742516444009     O  0.00  0.00      -0.00615059423170       0.00333069840173       0.00399859618208
atom       3.91175221929879      24.11477668088530      22.74386402047442     O  0.00  0.00      -0.01802448098079       0.00684280522964       0.02881612272518
atom       4.54385782422154       8.68236195567706      17.41213553849748     O  0.00  0.00      -0.01819561836241       0.00393954150731      -0.00704063083651
atom       6.24902977543783      21.00558029901781       8.49421006642078     O  0.00  0.00       0.01627991189883       0.00937967683084      -0.00651230582147
atom       8.92030772272157       4.99302350967285       7.02008326055251     O  0.00  0.00      -0.01373857294601       0.01771613857347      -0.02145740142686
atom       9.88669698677835      15.74123311776416      24.30613876665859     O  0.00  0.00       0.02916224104710       0.01791112763787      -0.01290202932269
atom      10.59836090931480       1.02684856219619      23.28310568775339     O  0.00  0.00      -0.02251272147484      -0.00996526958786      -0.02099130097622
atom      10.93886442637538       3.76688965438154       0.95973394681641     O  0.00  0.00       0.03304323192503      -0.02060902096090       0.01421636854931
atom      14.79399051009798      17.91478711814780       0.22640079201904     O  0.00  0.00      -0.00203687445368       0.01785577268661       0.02435608993356
atom      15.36933385173574       3.88299753651402      10.29201892518508     O  0.00  0.00       0.02993061358603      -0.01748411477369      -0.00336209015523
atom      18.23018006440871      13.92105701129504      12.49587702238365     O  0.00  0.00      -0.00890295628728       0.02011234973394      -0.00452019604149
atom       0.12828774798407       8.25762491000309      24.82945987340356     H  0.00  0.00       0.00833139851141       0.00500389213933      -0.00104266101082
atom       0.08499873176631       3.88018012129493      24.80919711900705     H  0.00  0.00       0.00343129313096      -0.01077182051413      -0.01668003427261
atom       0.00298380804218      20.80985295623386       7.87093635953086     H  0.00  0.00      -0.00543538257430       0.00275337919791       0.00574421975640
atom      -0.03120369189587       3.28781029214483       3.36856983032880     H  0.00  0.00      -0.00008664190931      -0.00583283487697      -0.00060940686786
atom       0.65287435177160      14.33262785744111       3.21054798626956     H  0.00  0.00      -0.00770894011515      -0.01850252423170      -0.01659322653582
atom       0.31963361169930      12.37614746415341       5.99350220028959     H  0.00  0.00       0.00280457117935      -0.01392638709788       0.00057671054501
atom       0.36444472309648      22.84871743780161      21.69943370828026     H  0.00  0.00       0.00268309352774       0.00434441630291       0.00105164899916
atom       0.56921896990534      24.57764510678599      24.67650240300354     H  0.00  0.00       0.00155577887844       0.01364581919894      -0.00424891438983
atom       0.76498679705065      17.41757278493564      14.07398708313812     H  0.00  0.00       0.00075603674751       0.00818243380863       0.00116316532156
atom       0.79736037441949       7.21834799119293       5.44417139525188     H  0.00  0.00       0.00725493406726      -0.00190431702268       0.00657407917173
atom       1.63746286092810      24.52503421981487       5.49781428896947     H  0.00  0.00      -0.00327157538278       0.00407709239122       0.01264245025118
atom       1.52944252957753      21.52850218189866      24.59168894877092     H  0.00  0.00       0.00152005660131      -0.00656845704259      -0.00516297656213
atom       1.83819500121984      13.21861655953029      12.50779197240193     H  0.00  0.00      -0.00092035998679       0.00525248651937       0.00505735878386
atom      19.05666187466798      10.78752836022285       2.26745564919291     H  0.00  0.00      -0.00834579898418       0.01072847333911       0.00221852681464
atom      19.09176990757559      10.88752658458803      17.15935196171590     H  0.00  0.00       0.00464768374306       0.00280559987293       0.00820869772820
atom       1.95193845138268      19.87671787909721      21.17952390629021     H  0.00  0.00      -0.00972089134467      -0.00800121558312       0.00547642410532
atom      19.77373137793005      10.58648279802770      11.47635174974232     H  0.00  0.00       0.00540135884520      -0.00654212585711       0.00868265649856
atom      19.95622578963733      18.12789501147232       3.08801008760221     H  0.00  0.00       0.00063492375729       0.00181105732193       0.00161837132017
atom      20.14794536224456      16.39174729299346      24.43753293932004     H  0.00  0.00       0.00202290794141       0.00477925508388       0.00599695504454
atom      20.29612946276092      19.98127167207161       0.16734791813815     H  0.00  0.00       0.02008964511532       0.01996356871345       0.00874351216181
atom       1.82819418796723       1.49999365600834      20.97610468967859     H  0.00  0.00       0.00585614898859      -0.00804201699630      -0.00140548911119
atom      21.16602183580056      21.39728300058555      15.02746333604080     H  0.00  0.00      -0.00080284236789       0.00955631247054      -0.00313049315374
atom       1.91700872711011      10.71355702258638      21.23271633616846     H  0.00  0.00       0.00149382061434       0.00694940681397       0.00441726867977
atom      21.23739815338921      16.72996223480635       9.50334817250115     H  0.00  0.00       0.00523207380794       0.00695160043706      -0.00329606805456
atom      21.26583737610727      23.83627280132650      22.47623935267353     H  0.00  0.00       0.01479264496688       0.00545544785037       0.00905858175289
atom       2.09552258687842      11.79952384554336      17.83928062733105     H  0.00  0.00       0.00026806589267      -0.00258930504915      -0.00697821841372
atom      21.90518625496557       8.55417516704187      24.68060159023204     H  0.00  0.00       0.00582582982677       0.00414643275320      -0.00445563117277
atom      22.07774015281014      16.64609426863943      14.37166533493473     H  0.00  0.00      -0.00589749966230       0.01597719659451       0.00896493281202
atom      22.10001913528984       3.47463154993792      13.06953930326149     H  0.00  0.00       0.00052269841796      -0.00044928504881      -0.00306479964207
atom      22.28337789788102      12.46334960192545      24.51900457376917     H  0.00  0.00      -0.00573909778914      -0.00014948425418      -0.00279423720262
atom      22.34348464922193      23.31588777800684      18.98886067343219     H  0.00  0.00      -0.00573664922336       0.00576700611888      -0.00346619662731
atom      22.38562538313026      22.76590569589075       0.07282032336452     H  0.00  0.00      -0.00358461963454       0.00200711541887      -0.00702754343624
atom      22.67171393838069      20.86045199425596       2.70238222032428     H  0.00  0.00      -0.01119063558290      -0.00694040465706      -0.00985437916433
atom      22.90934163399744       9.16244300780007       7.69598907503318     H  0.00  0.00      -0.00213570040604      -0.00050453199526      -0.00193567957843
atom      22.60069909949087      13.57849457848769       9.21139988443541     H  0.00  0.00       0.00335863328312      -0.00868464933267       0.00990223137229
atom      23.12163918397319      19.41554639907401      10.06695891629579     H  0.00  0.00      -0.00196574901496       0.01567021134954      -0.01495827485196
atom      23.01969513721729       2.35563360234134      21.01034591563030     H  0.00  0.00       0.00235397499916       0.00359898764465      -0.00492935552187
atom      23.58150569700200      14.39692199490382      17.90520473512911     H  0.00  0.00       0.00785970303741      -0.00473771001506      -0.00294180063446
atom      23.61544013121721       8.37501131334442       3.23271203226690     H  0.00  0.00       0.00364355190352      -0.00330975976362      -0.00526068095545
atom      23.94523918363321      24.71507141812281      24.54761961733778     H  0.00  0.00      -0.00818739846769      -0.00589071039193       0.01851445289857
atom      24.14931519852960       6.88263660428917      22.83023001951575     H  0.00  0.00      -0.00157589372113      -0.01886088590155      -0.00081958153336
atom      24.49485918299712      24.56161366392260      21.49356732334689     H  0.00  0.00      -0.00901797310585       0.00878431103634      -0.01302801416135
atom      24.57505200782705       1.93042432757456      16.65382837989810     H  0.00  0.00       0.00266838355666      -0.00542611644943      -0.00013891528599
atom      24.57792502700161      16.56963043056163      10.05342882265650     H  0.00  0.00       0.00145407142975      -0.00393344392590      -0.00345298239553
atom      24.37198076952959      16.36837596366044       1.85526156610925     H  0.00  0.00       0.00343768083770      -0.00071645497742      -0.00594780412691
atom      24.75723241006155      11.83593133962943       0.23639898443442     H  0.00  0.00      -0.00574395899682       0.00192989535249       0.00360524565371
atom      24.93547715910813      16.24996088619979      21.87348949178473     H  0.00  0.00      -0.00870502103444       0.00262732661972       0.00073333054530
atom      24.70755280415761      10.07277710142119      23.24219683576506     H  0.00  0.00      -0.00892029225566       0.00286008350941       0.00485842006298
atom       2.66960647101642      21.32403630345114      12.03855942285749     H  0.00  0.00       0.01167840174101      -0.02098778221028      -0.00738982492991
atom       2.81846141314167      15.95906617812468       2.41652498074760     H  0.00  0.00       0.01848860710864       0.00288402512187      -0.02752604227986
atom       3.23088377104690      13.97589516447274       4.95191235053056     H  0.00  0.00       0.00794867484887      -0.01670910443104       0.01552589930244
atom       3.26851924278668       7.38850104490269       0.10850993162315     H  0.00  0.00      -0.00014945745462      -0.00929396938251      -0.00113874272658
atom       3.46994303104001      -0.01516681297741       2.93688687074735     H  0.00  0.00      -0.00333840512923       0.00598846324000       0.00456135093292
atom       4.04501313499507      23.85461832117707       1.48454310201609     H  0.00  0.00      -0.00519372732670      -0.00053668707295       0.01093128018793
atom       4.15202151390506      16.49837503094692      18.97101334631607     H  0.00  0.00      -0.00194148248238       0.00550420513307      -0.00005404681481
atom       4.17912588609281       3.76401820653868      17.50584369065101     H  0.00  0.00      -0.00456844487390       0.00210373876011       0.01063834268714
atom       4.49023531493184      19.68494648339343       0.01979616106133     H  0.00  0.00       0.00158949082790       0.00299862604289       0.00002319864827