begin
comment       frame number       51
atom      19.83251167146305      16.41913713228821      14.16783556224251     C  0.00  0.00       0.00570937805307       0.08432160529386      -0.03802980568277
atom      19.94312355646866      11.69393878949732      14.17410262328673     C  0.00  0.00      -0.07435648445475       0.02184249364754       0.00881332970143
atom      15.84154197252689      14.18721189705679      14.24155885726955     C  0.00  0.00       0.02998903171000       0.01161345609006      -0.01614157184062
atom      14.46771974192691      16.52911346925335      14.15446414798641     C  0.00  0.00       0.02825211245628      -0.00679186972071       0.01067765902089
atom      11.90001209045941      16.50440326164718      14.10001557121353     C  0.00  0.00       0.00762251101379      -0.04054091659537       0.01107218637850
atom      10.52693843736862      14.19175453817904      14.24867638671206     C  0.00  0.00       0.04489483017033      -0.00970003430984      -0.02024170809199
atom      11.88525530053014      11.87627801089468      14.03804339218586     C  0.00  0.00       0.01050492288895      -0.03025563548793       0.04062107513648
atom      14.55399939930356      11.88307666854348      14.16029752399963     C  0.00  0.00      -0.00430630286069      -0.01331581049870      -0.00376499999923
atom       7.94035181627116      14.20878640658312      14.21053262433509     C  0.00  0.00      -0.07441555771308      -0.00325503384669       0.00082781395929
atom      18.51576746385395      14.23362538195587      14.14454518191298     N  0.00  0.00      -0.03910867744178      -0.07459503409686       0.00679871752372
atom       5.70790049494324      14.17883214623779      14.18710950383843     N  0.00  0.00       0.04080327791136       0.00177504000833       0.00118773139851
atom      21.79028529767151      16.11497933011361      14.26552105714931     H  0.00  0.00       0.02518293764933      -0.00361728537155       0.00618743342718
atom      19.61077628263096      17.86917886537563      12.41697223367492     H  0.00  0.00      -0.00091709441398      -0.03521300054738       0.01742148802879
atom      19.21953158661805      17.71831608185630      15.59063976560335     H  0.00  0.00       0.00199657064710       0.00520019321164       0.02297470209990
atom      21.82497590676626      12.12531471861068      14.29058750869887     H  0.00  0.00       0.04538124820076       0.00616351842390      -0.00154483025617
atom      19.32669969441613      10.57749722415571      15.86241146777433     H  0.00  0.00       0.00591786395647       0.00729899135856      -0.01249697562980
atom      19.35969488797767      10.76021845677893      12.44205910126362     H  0.00  0.00       0.00829470188437      -0.00858990474455      -0.00147517152114
atom      15.56901622106281      18.30123521694460      14.42236692729784     H  0.00  0.00      -0.01360814881885      -0.01287249963721      -0.00929548183066
atom      10.91615035702339      18.17723906171991      14.17763298181264     H  0.00  0.00      -0.02115105437214       0.03530021184193       0.00007051927839
atom      11.03999403230822       9.89099801104345      14.54005436633091     H  0.00  0.00       0.00478517659222       0.04200087762286      -0.02092001237780
atom      15.70700931574327      10.08078663320902      14.18667669126373     H  0.00  0.00      -0.02236155378428       0.02151554633149      -0.00040927268169
energy     -76.86434126036589
charge       0
end
begin
comment       frame number     1476
atom      20.39318612024415      15.98852686349527      13.58568871577506     C  0.00  0.00      -0.02268586665323      -0.05494636066740       0.04106803134786
atom      19.71373830248649      11.43526259070169      13.98678782477888     C  0.00  0.00       0.02859333337920      -0.02714501600779      -0.02796028353282
atom      15.90025597838305      13.83627226325240      14.05685880788390     C  0.00  0.00      -0.01109801286755       0.05186318827941       0.01767789869871
atom      14.84595713620272      16.33080113793379      14.24775907002204     C  0.00  0.00      -0.01911564162011       0.01052054438068      -0.00012793632024
atom      12.24647009193352      16.69635546817541      14.25885550487686     C  0.00  0.00      -0.02234848097950      -0.00788108407497       0.01108649428365
atom      10.63480802322867      14.49640238690168      14.31804434696856     C  0.00  0.00      -0.02906618028371       0.05905080976222      -0.01182707205209
atom      11.57823384655205      12.08749132222700      13.80868062491489     C  0.00  0.00      -0.06192864253590       0.01216410758739       0.05740183331577
atom      14.12999576640035      11.84074097611188      14.12702372561547     C  0.00  0.00       0.01319536145217       0.01144250152806      -0.02855797936450
atom       7.91294002702476      15.01807504145296      14.80047760048195     C  0.00  0.00      -0.01616692973700      -0.03656749189374      -0.00870041283398
atom      18.48470753248355      13.73042631200502      14.28447158364687     N  0.00  0.00       0.00228178823895       0.03350409098362      -0.01467532606518
atom       5.70750293917605      14.76967817713955      15.10267805695789     N  0.00  0.00       0.04504152064635       0.01384848974881      -0.00409080510005
atom      19.26839167308388      17.49334212118831      12.96562800965696     H  0.00  0.00      -0.00772758194151       0.02016091599189      -0.01597940073626
atom      21.20424949737816      16.46205350336593      15.49153120601556     H  0.00  0.00       0.00280601495541      -0.00265376209864      -0.02343717053982
atom      21.71792329687174      15.14866738453233      12.18092959348263     H  0.00  0.00      -0.00764179706018       0.01271448210606       0.01217377402087
atom      21.42560082350883      11.59996807456312      15.14735874917674     H  0.00  0.00       0.00122866745040      -0.01383239666947      -0.00495092231722
atom      18.52051544722686       9.86814612708867      14.59666464033292     H  0.00  0.00       0.00495439827083      -0.00088615168824       0.00116742214332
atom      20.29882961209341      11.12105614654984      11.85711681310173     H  0.00  0.00      -0.00648014315810      -0.00136508298527       0.03283374056596
atom      15.93707483088927      18.05316428076953      14.61127591078755     H  0.00  0.00       0.00416788925495      -0.01073209158000      -0.00661277994731
atom      11.23613279686474      18.62475402539292      14.42783123286914     H  0.00  0.00       0.02439473436548      -0.03093971450440      -0.00020286361170
atom       9.94791841762195      10.62562893429847      14.25832212088593     H  0.00  0.00       0.04547274644624       0.01346948826321      -0.02095667457744
atom      14.65938740697947      10.05596030000266      13.68813042212792     H  0.00  0.00       0.02985284225855      -0.05384575196662      -0.00217955594796
energy     -76.83463944401431
charge       0
end
begin
comment       frame number     2901
atom      20.14183708589636      15.37370731415810      13.66300098599848     C  0.00  0.00       0.04318196910071      -0.04111085099428      -0.00243791460081
atom      19.45755395142352      10.87390429951367      14.15065728695171     C  0.00  0.00       0.04014212867183      -0.05944546833906      -0.01548656602177
atom      16.00932923894845      13.71154365343231      13.69553346579688     C  0.00  0.00      -0.05775426514919       0.01753755606102       0.03267075162076
atom      15.01033663417890      16.22477969489107      14.27569477203247     C  0.00  0.00       0.02863942249887      -0.01360005229605      -0.01220713108945
atom      12.53459998269662      16.75082596847160      14.74708233741659     C  0.00  0.00      -0.03368026430734       0.02048934823083      -0.02140810952362
atom      10.63105462842588      14.90958158699362      14.79517140023462     C  0.00  0.00       0.02162245345262      -0.04265262363939       0.00655578864741
atom      11.52686668880792      12.37916498607186      14.33755880281725     C  0.00  0.00       0.02857815601985       0.00030802702015       0.02015190356111
atom      14.13769430300203      11.77667330556450      14.02326197193291     C  0.00  0.00      -0.02277902821416       0.10644695141270      -0.00031038658024
atom       8.06072369661439      15.48476099863234      15.32919575030676     C  0.00  0.00       0.03208168001454      -0.00762173536225      -0.02134196237391
atom      18.48776096136507      13.22332424603247      13.13167292552235     N  0.00  0.00      -0.01367351310006       0.00319235067107       0.01552172762860
atom       5.96597733438601      15.99766304439020      15.14888807582144     N  0.00  0.00      -0.03081249970280       0.00640643664063       0.00843175248968
atom      20.19962970060161      16.59394802949092      12.04055997569427     H  0.00  0.00      -0.00690074471874       0.01827026188147       0.00480567396750
atom      20.23078021290446      16.05036177396213      15.63389027178891     H  0.00  0.00      -0.01796768292033       0.00937423254223      -0.00910154428949
atom      21.94257325326961      14.35835825500606      13.59803051246573     H  0.00  0.00       0.00999763530539       0.01043986147367      -0.00486190542539
atom      21.26054235395970      10.07570131235911      13.11933756854536     H  0.00  0.00      -0.02185668237838       0.03120491283445       0.01463949420665
atom      19.93693245027653      10.92042267501379      16.18128182868475     H  0.00  0.00      -0.00332158563311       0.00700695231012      -0.00385597000065
atom      18.41302062179913       9.04404369688807      13.86898988283011     H  0.00  0.00      -0.01259001203933       0.02806354223738       0.00145717533369
atom      16.14929139414707      17.91439392027944      14.21440703237097     H  0.00  0.00       0.00981194265708      -0.00244402814885      -0.00453882053774
atom      11.83046791079059      18.74226549995429      14.47430022889084     H  0.00  0.00       0.01313016055846      -0.01616622700783       0.01685786117806
atom      10.56909500892782      10.58830032357531      14.60173673306865     H  0.00  0.00      -0.02197827709320       0.00954923738526      -0.00438248143535
atom      14.54827797086742      10.18927944062955      13.15261186659520     H  0.00  0.00       0.01588996022811      -0.08454456024707      -0.02394796464847
energy     -76.83873382447395
charge       0
end
begin
comment       frame number     4326
atom      20.38432498081350      14.49688743038698      13.07676370433886     C  0.00  0.00      -0.00042158951169       0.01625835302408       0.06012781744509
atom      18.83067706752600      10.10591654018546      13.82240531051490     C  0.00  0.00      -0.00398523030888       0.01925305481764      -0.01095337269109
atom      15.90906451011389      13.81025891456324      13.79161593227483     C  0.00  0.00       0.02756110390087       0.02850332813318       0.03898932236666
atom      15.34100693513173      16.40278207865623      14.09182676338327     C  0.00  0.00      -0.00416063344565       0.03335007439190       0.02893245670810
atom      12.88187985166097      17.17430680050247      14.84036605409704     C  0.00  0.00       0.00699514191627      -0.06681918616208      -0.05057004037814
atom      11.02732307566418      15.23424800206476      14.72269048043153     C  0.00  0.00      -0.03905484450996      -0.00867309224614       0.02906432514644
atom      11.56235196636568      12.64311131362322      14.56130928868530     C  0.00  0.00       0.00626572702989       0.03207969616150       0.00071700922735
atom      14.06234823468895      12.12814496244538      14.20730447250773     C  0.00  0.00      -0.06021914365596       0.01602128067749      -0.01093174279398
atom       8.38866886989763      15.70867137645120      15.33446995318001     C  0.00  0.00       0.04664513643556       0.01461183143597      -0.02041312812535
atom      18.29518111157892      12.79563100126165      14.05331936631341     N  0.00  0.00       0.03528616036969       0.05512982410460      -0.02698511658437
atom       6.38339926170671      16.50027672060531      15.47993607553681     N  0.00  0.00      -0.03463087958989       0.00425047289352       0.00846274479094
atom      20.31709378224007      16.53548854607741      14.00310236284239     H  0.00  0.00      -0.00933138423387      -0.03808852367222      -0.02534329324855
atom      22.05936582906235      13.79526437639177      14.11640577543324     H  0.00  0.00       0.00056619940647      -0.00105813182744      -0.02058189595664
atom      20.48799247990320      14.55785554731291      11.02897729183977     H  0.00  0.00       0.00480255225118       0.00098111911936      -0.00185123007080
atom      17.55381227999362       9.35253695063813      12.25064703012452     H  0.00  0.00       0.02334301271163      -0.00445395240129       0.01772279811415
atom      20.91432988224432      10.14279295870006      13.37195868548009     H  0.00  0.00      -0.02356745081233      -0.01783158654413       0.00388757874705
atom      18.38034642060177       9.34169339306579      15.72009972748752     H  0.00  0.00       0.00526217617536      -0.01164943467138      -0.01411974936880
atom      16.71845572125118      17.95408591419270      14.51039843632548     H  0.00  0.00      -0.00266101534971      -0.01960774374280      -0.01903440398449
atom      12.24555637180021      18.95996941604968      14.30839115535408     H  0.00  0.00      -0.00531553439352       0.03662500646796       0.01364850211217
atom      10.05737173597588      11.27163932918542      14.79609644787385     H  0.00  0.00       0.00552739110172      -0.00129141602857      -0.00126663052093
atom      14.60736467306569      10.36153753233775      14.17372759335916     H  0.00  0.00       0.01983728742555      -0.08739722115877       0.00025093502227
energy     -76.82832264062046
charge       0
end
begin
comment       frame number     5751
atom      20.78214535701217      13.90870644297661      13.10993398055420     C  0.00  0.00      -0.01745303009257      -0.00156854878998       0.04002467040573
atom      18.75920517313281       9.90589034821372      13.40199400682147     C  0.00  0.00      -0.07295699987557       0.00788743960473      -0.00882067802303
atom      15.93877692322375      13.50984067210901      14.09210024656778     C  0.00  0.00       0.02197901167008      -0.04466161432932      -0.00149017172107
atom      15.22937269428214      15.98258331930325      13.80042071551919     C  0.00  0.00      -0.00982630601573       0.03431540936650       0.04691262228586
atom      12.96232580677849      17.03685396285772      14.91244763144678     C  0.00  0.00       0.01119224932306      -0.06493892607283      -0.06475919016620
atom      10.86596908815312      15.47326655472490      14.85840372431475     C  0.00  0.00       0.02366105528899      -0.05386773279987       0.06116740019539
atom      11.60197015521060      12.77812826552001      15.19320450092244     C  0.00  0.00      -0.08137594980116       0.00623128910336       0.00869435729915
atom      13.88847989378739      11.72712580678227      14.99789982191455     C  0.00  0.00       0.04457954379558       0.06764964816064      -0.03439623396573
atom       8.47568963370714      16.53132381423455      15.61022491461597     C  0.00  0.00       0.06116962099909      -0.03917250835911      -0.02588586589148
atom      18.43659479404898      12.60219808455603      13.45969727448914     N  0.00  0.00      -0.07721296417628       0.01693412290739      -0.00405376412605
atom       6.84103705367790      17.88951047658377      15.38060964662189     N  0.00  0.00      -0.05698415324342       0.03688253308261       0.00663914912721
atom      21.83627518954856      13.02717470037862      14.61466120234479     H  0.00  0.00       0.02575538061097       0.01182603353166       0.00362920047505
atom      21.51368740339032      13.48481368257491      11.38465519917166     H  0.00  0.00       0.02428926341931      -0.02159712319158      -0.04957320753766
atom      20.84689804445244      15.91460697857612      13.06979681049649     H  0.00  0.00      -0.01114196112835       0.01884501093332       0.01562278223109
atom      16.92253177504384       8.98928389734171      12.69286183151859     H  0.00  0.00       0.02478260019738       0.01071210693616       0.00449165352799
atom      20.14250816056078       9.47100891302741      12.09506759427346     H  0.00  0.00       0.03470845011480      -0.01584114109284      -0.01521585564654
atom      18.88545126703456       9.34480436171692      15.29520154351396     H  0.00  0.00       0.01857824336413      -0.02379542359617       0.02588152116337
atom      16.55777444134442      17.45185259121450      13.44696119904576     H  0.00  0.00       0.01683763552907       0.00273750680702      -0.01035506030638
atom      12.49926230427527      18.82506576235403      14.44209982582670     H  0.00  0.00      -0.00163199037294       0.06757437960900       0.00054581289898
atom      10.01612997745308      11.41441052419478      15.67288568188637     H  0.00  0.00       0.01604397953532       0.01760262164206      -0.00673557773572
atom      14.02471715328670       9.77695141806232      14.98833896636413     H  0.00  0.00       0.00865111526273      -0.03266719776927       0.00752719785327
energy     -76.80685052697952
charge       0
end
begin
comment       frame number     7176
atom      20.83254900862368      13.28137692689866      13.05974299531625     C  0.00  0.00      -0.08669949530073       0.01691081848397       0.05287306394846
atom      18.14424491035991       9.43302291638577      13.31729743826382     C  0.00  0.00      -0.01168735111492      -0.07539943765737      -0.04761155114009
atom      16.02302170754050      13.35092509038561      14.10590939523743     C  0.00  0.00      -0.01678007202033      -0.03509112229095       0.00614348814206
atom      15.79249303030299      15.90761678793624      13.65336786591313     C  0.00  0.00      -0.01570603469617       0.03473804791968       0.02721378422964
atom      13.42256132380693      17.25845505849604      14.05299579768872     C  0.00  0.00       0.02117718200674      -0.08856578199698       0.01922311034408
atom      11.26312900679267      16.04477057449708      14.98451268894987     C  0.00  0.00       0.02730104029311      -0.02810734234620       0.01560771103672
atom      11.61408724449470      13.51180241042935      15.65538396880028     C  0.00  0.00      -0.01184246198992      -0.06545262541236       0.02831947084477
atom      13.74965844001955      12.09868628996301      15.09185604924788     C  0.00  0.00       0.01388085505023       0.00160347951611      -0.01779510778494
atom       8.89798832100076      16.99535125305771      15.65364085640273     C  0.00  0.00       0.00449280611949       0.01785323848719      -0.01199529072787
atom      18.20218955843561      11.96992348273894      13.57003363244590     N  0.00  0.00       0.03682094625934       0.07223369297242       0.02220663137046
atom       6.94973392787489      17.77921648335341      16.22406893489208     N  0.00  0.00      -0.01594020465007       0.00277243272122       0.00501480389640
atom      22.12483635251627      11.99082111854444      12.53764491741938     H  0.00  0.00       0.03417884751736      -0.04144974761878      -0.03690507302407
atom      20.21784784942967      14.81437275678345      11.98035963590151     H  0.00  0.00       0.01178139889544       0.01971123879837      -0.03324770147363
atom      21.63350489048556      14.08013148995849      14.76515172820840     H  0.00  0.00      -0.00539709100349       0.00195821786815       0.01332119498773
atom      17.89009232128262       8.86086211904219      11.14330435798866     H  0.00  0.00       0.00242498469352       0.00466697270516       0.03341758251795
atom      19.81714046994814       8.32278526936132      13.90926275952233     H  0.00  0.00      -0.00448066588095       0.01283299368114       0.00432516370867
atom      16.48474026116672       8.70261358826533      14.29367793764333     H  0.00  0.00       0.00564540245779      -0.00863023916443      -0.00163462631259
atom      17.55146343478442      16.97518939621737      13.80332309197291     H  0.00  0.00      -0.00535654800585       0.00650656273005      -0.02039438306806
atom      12.93553883918925      18.67061582417061      12.95617214618599     H  0.00  0.00      -0.00295841680168       0.08850315679894      -0.03901623217280
atom      10.14963516947147      12.29160922434634      16.81562902511503     H  0.00  0.00       0.01937023160358       0.03239549434013      -0.02846704985309
atom      13.69699396414567       9.98115328962174      15.22659621902732     H  0.00  0.00      -0.00260376704804       0.02623555662236       0.00796346707387
energy     -76.81361207609690
charge       0
end
begin
comment       frame number     8601
atom      19.94941165750866      12.71186938730322      12.07203241898720     C  0.00  0.00       0.01071576674057       0.05547436778959      -0.00550255068395
atom      18.31642825396464       8.79794664522709      14.00381010920337     C  0.00  0.00      -0.00903631460834       0.02845371590576      -0.01075134379633
atom      15.96279613829928      13.24407112621247      14.03567551064989     C  0.00  0.00      -0.07845358299059      -0.01743531064940       0.02534837892645
atom      15.87405974818771      15.81326150095187      13.77021861941945     C  0.00  0.00       0.01035902397118       0.06195546253184       0.01045704872506
atom      13.91333472478553      17.23362942294246      14.79591681398242     C  0.00  0.00      -0.02351196009840      -0.04245248723660      -0.00754231160734
atom      11.72571314843257      15.91681857880440      15.53332358883937     C  0.00  0.00      -0.01935758205855       0.02805962499840      -0.00752123015814
atom      11.49622325914871      13.25377351203658      15.24652821541962     C  0.00  0.00      -0.03931180067522       0.00621180303167       0.06366997633605
atom      13.63433906063711      11.96667268585714      14.86914516827872     C  0.00  0.00       0.04472377972621       0.00351435428470      -0.03115002740505
atom       9.58504380850904      17.49778705398131      16.01999392413574     C  0.00  0.00      -0.06372067431851       0.05324063422817       0.01167621490335
atom      17.83377629421448      11.74927536986047      13.57302504741111     N  0.00  0.00       0.10020620098296      -0.06809224417088      -0.04070761882106
atom       7.88153645302615      19.00949403063241      16.28733104373004     N  0.00  0.00       0.06631876873542      -0.06084506701401      -0.00844137460106
atom      21.20655149606765      11.18261658286787      11.48046776134428     H  0.00  0.00      -0.00395943603260       0.00311217404822       0.00175928999135
atom      19.17534798002086      13.73997871720865      10.20463227545811     H  0.00  0.00       0.01793255418185      -0.01788043328106       0.03934065187134
atom      21.23071138578661      14.20543470127742      13.30402531137192     H  0.00  0.00      -0.02994586092775      -0.03095442067775      -0.03074458452330
atom      20.44424393507770       8.61855501033063      14.33109601162737     H  0.00  0.00      -0.03293008744793       0.00413116484559       0.01322468928100
atom      16.91021905667249       8.28842578963345      15.46490952506150     H  0.00  0.00       0.02194518708889      -0.00693751243120      -0.00083842784006
atom      18.06003684987127       7.53910579937073      12.28518148895947     H  0.00  0.00      -0.00854800842967       0.02250454960006       0.01128414796339
atom      17.21706390212721      17.26507110714758      13.19683114967687     H  0.00  0.00       0.02076793727111      -0.02425695279877      -0.00900662254858
atom      13.95159871422698      19.25809670286128      14.71661240672548     H  0.00  0.00       0.00001017473331       0.00553449161972       0.00251756579109
atom       9.75033545241002      12.35725332097613      16.29949842720502     H  0.00  0.00       0.03029238087711       0.01303392921222      -0.03406054463769
atom      13.88567405871626       9.98434071855273      14.58273797784518     H  0.00  0.00      -0.01634249045655      -0.01207819743162       0.00804721103666
energy     -76.82040264303612
charge       0
end
begin
comment       frame number    10026
atom      19.88051982305962      11.69448897051417      11.58976155796020     C  0.00  0.00       0.01201019792191      -0.00027687208095      -0.03936651092472
atom      17.54769404556309       8.76070469431808      14.22418251459752     C  0.00  0.00       0.04321907260946      -0.00816380613280      -0.03474052549494
atom      16.02652700410119      13.21095142746920      13.97705032415487     C  0.00  0.00       0.02781754016760      -0.02694243998149       0.00428120872008
atom      16.37565487211317      15.89910344386812      13.97872099791411     C  0.00  0.00       0.01416047561731      -0.05629531808077      -0.00552660450657
atom      14.36295134147109      17.25223880378049      14.62866982749604     C  0.00  0.00      -0.04431855325737       0.05364984772246       0.04958283671705
atom      11.87366607065252      16.27157303707607      15.68842261710196     C  0.00  0.00       0.11085384273512      -0.04986543562873      -0.08068944256775
atom      11.55116626206916      13.73209597893167      15.17074378796991     C  0.00  0.00       0.01419938104273      -0.04612924716674       0.05286720411433
atom      13.81114402306841      12.17142115897909      14.69452090470632     C  0.00  0.00      -0.08923288828567       0.03145328844854      -0.01029348068894
atom      10.08785610970072      17.86678193928371      16.24998637797997     C  0.00  0.00      -0.14078362285667       0.09341679787524       0.06379550471418
atom      18.03534456057947      11.43298659931175      13.70967271680353     N  0.00  0.00       0.01558977246120       0.02553341571300      -0.03158906207096
atom       8.28330052554421      19.04309440630202      17.03346341097584     N  0.00  0.00       0.06680317337389      -0.03620309268575      -0.03105363461195
atom      21.48066214809065      10.78304809626195      12.22776519494669     H  0.00  0.00       0.04187747077390      -0.00949788919207       0.02590764086769
atom      19.88545617266328      10.44879470147393       9.76388206874987     H  0.00  0.00      -0.03413865193643       0.01365119813367       0.01995753001116
atom      20.61576888485240      13.53354171358642      10.75866288643811     H  0.00  0.00      -0.02352286550803      -0.00924207615006       0.02465702285148
atom      19.30406487755291       7.51502049030875      13.71590384578939     H  0.00  0.00      -0.02826831174521       0.02702746026110       0.00482155159396
atom      17.21708285590659       8.37916192285766      16.12444871216599     H  0.00  0.00      -0.01098240979613       0.00113282461411       0.03464546276457
atom      15.99908946803657       8.15620785863930      13.09250466659130     H  0.00  0.00      -0.01274984582460      -0.01395798828921      -0.00984609023631
atom      18.33979909415123      16.32864653835412      13.63593531210758     H  0.00  0.00      -0.00323865083926       0.02257759249703      -0.00262093620741
atom      14.44677633180664      19.32070668060479      15.02891036516071     H  0.00  0.00       0.00876721979187      -0.01321663922728      -0.01238859616204
atom       9.85186958781200      12.68261527660211      16.08500191659163     H  0.00  0.00       0.02286172514190       0.01849141143824      -0.02695903966189
atom      13.20661374193467      10.32656425407325      14.16263044499265     H  0.00  0.00       0.00943164764684      -0.01777080735982       0.00653624767806
energy     -76.80121865307078
charge       0
end
begin
comment       frame number    11451
atom      19.97922480063204      11.98732888095233      11.80819700119629     C  0.00  0.00      -0.02157854135538      -0.05235079884255      -0.06919817295150
atom      17.31948543480492       8.12873266577260      13.50742057890515     C  0.00  0.00       0.08208568816369       0.02643352331833      -0.01216821025386
atom      15.89157491499038      12.56657302652639      14.20150031231613     C  0.00  0.00       0.01988776683834      -0.00932296844039      -0.03693415098404
atom      16.32206719724113      15.19022610535942      13.97137807401295     C  0.00  0.00      -0.00831964299815       0.00074695726591       0.00329005397097
atom      14.63515541994807      16.97700104668814      14.73299391219238     C  0.00  0.00      -0.00382360401469       0.02058079740330       0.02091826595800
atom      12.20752317360268      16.22743160627842      15.96407386262895     C  0.00  0.00       0.05710024969218       0.10093235714256      -0.05242054517527
atom      11.75824744993115      13.73242502433496      15.80535400974362     C  0.00  0.00      -0.01100360650050      -0.02248404428358       0.04748666657356
atom      13.50128352690381      11.86619033508665      15.25593787014140     C  0.00  0.00       0.02765084779388      -0.00363369681146      -0.02786796769493
atom      10.68155319835120      18.52784377238935      16.42552403722411     C  0.00  0.00      -0.06204778350835       0.03956044274582       0.03647334665731
atom      17.74697548525913      10.97298137722963      12.92887380614492     N  0.00  0.00      -0.07138946761437      -0.03523589760757       0.06648908828216
atom       9.37294012623426      20.36179046046211      16.98026976424092     N  0.00  0.00       0.06556997456991      -0.08599243356359      -0.02906861222182
atom      20.82746954558484      13.52910485130542      12.57837233609879     H  0.00  0.00       0.01893978207691       0.04022450021148       0.03327498823462
atom      21.46405239027956      10.51136792885991      11.45025217522229     H  0.00  0.00      -0.01625437497716       0.00862294641190       0.00618433716108