begin
comment source_file_name=qm9/dsgdb9nsd_000001.xyz structure_number=1
atom -0.0126981359 1.0858041578 0.0080009958 C -0.535689 0.0 0.0 0.0 0.0
atom 0.002150416 -0.0060313176 0.0019761204 H 0.133921 0.0 0.0 0.0 0.0
atom 1.0117308433 1.4637511618 0.0002765748 H 0.133922 0.0 0.0 0.0 0.0
atom -0.540815069 1.4475266138 -0.8766437152 H 0.133923 0.0 0.0 0.0 0.0
atom -0.5238136345 1.4379326443 0.9063972942 H 0.133923 0.0 0.0 0.0 0.0
energy -40.47893
charge 0.0
end
begin
comment source_file_name=qm9/dsgdb9nsd_001500.xyz structure_number=1500
atom 0.0182788081 1.4024971182 -0.0528273509 C -0.227658 0.0 0.0 0.0 0.0
atom -0.0053264627 -0.0058902362 0.0135796256 O -0.21262 0.0 0.0 0.0 0.0
atom 0.6165060004 -0.608937836 -1.0746697286 C -0.160405 0.0 0.0 0.0 0.0
atom 0.5566077334 -2.1249235866 -0.9416293144 C 0.229621 0.0 0.0 0.0 0.0
atom 0.0396286854 -2.7017209882 -0.016758342 O -0.255181 0.0 0.0 0.0 0.0
atom 1.1892210818 -2.8301355323 -2.0479128687 C 0.248321 0.0 0.0 0.0 0.0
atom 1.7146358394 -3.4031922406 -2.9667001421 C -0.428801 0.0 0.0 0.0 0.0
atom 1.0477068778 1.7933260047 -0.066785698 H 0.108234 0.0 0.0 0.0 0.0
atom -0.5052588574 1.7779083698 -0.9459333321 H 0.108229 0.0 0.0 0.0 0.0
atom -0.4903251948 1.7740600141 0.8390705515 H 0.137777 0.0 0.0 0.0 0.0
atom 0.1435056661 -0.3346848512 -2.0363804517 H 0.117397 0.0 0.0 0.0 0.0
atom 1.680195254 -0.3192247092 -1.1668661886 H 0.117402 0.0 0.0 0.0 0.0
atom 2.1748042983 -3.9242271966 -3.7711600701 H 0.217683 0.0 0.0 0.0 0.0
energy -344.41106
charge 0.0
end
begin
comment source_file_name=qm9/dsgdb9nsd_003108.xyz structure_number=3108
atom 0.0403089664 -1.21485059 -0.0341318697 C -0.419172 0.0 0.0 0.0 0.0
atom 0.0333544303 -0.0107521502 -0.0103170084 C 0.172312 0.0 0.0 0.0 0.0
atom 0.0082994934 1.4098949156 0.0446952892 C 0.22448 0.0 0.0 0.0 0.0
atom 0.277306392 2.2837337811 -1.1626890247 C -0.313035 0.0 0.0 0.0 0.0
atom 1.17637449 2.4293890864 0.024311737 C -0.09492 0.0 0.0 0.0 0.0
atom 0.4920061461 3.2599759442 1.113427492 C -0.221631 0.0 0.0 0.0 0.0
atom -0.6976672966 2.2465425801 1.1313299148 C -0.289075 0.0 0.0 0.0 0.0
atom 0.0479152278 -2.2758792999 -0.0613632941 H 0.183009 0.0 0.0 0.0 0.0
atom 0.7012252939 1.7619299738 -2.0134805184 H 0.125361 0.0 0.0 0.0 0.0
atom -0.4298032851 3.0702385156 -1.4195857441 H 0.108251 0.0 0.0 0.0 0.0
atom 2.236060148 2.2140438585 -0.0362425101 H 0.099439 0.0 0.0 0.0 0.0
atom 1.0401638724 3.2648683722 2.0574615726 H 0.108678 0.0 0.0 0.0 0.0
atom 0.2565469696 4.2939709492 0.8412775756 H 0.099862 0.0 0.0 0.0 0.0
atom -1.6858588789 2.6296647622 0.8586314287 H 0.099318 0.0 0.0 0.0 0.0
atom -0.7754549991 1.7136799612 2.0801725198 H 0.117123 0.0 0.0 0.0 0.0
energy -271.323089
charge 0.0
end
begin
comment source_file_name=qm9/dsgdb9nsd_004466.xyz structure_number=4466
atom 0.1396220836 1.5016932619 0.1086074424 C -0.498887 0.0 0.0 0.0 0.0
atom -0.0446729434 0.0347210783 0.0259566793 C 0.269055 0.0 0.0 0.0 0.0
atom -1.0905779488 -0.8149438212 -0.1392357263 C 0.178399 0.0 0.0 0.0 0.0
atom -2.4445079264 -0.5557432001 -0.3451764546 N -0.598771 0.0 0.0 0.0 0.0
atom -0.6399422628 -2.1370319384 -0.1568136527 N -0.426456 0.0 0.0 0.0 0.0
atom 0.6387609138 -2.0107459182 -0.0040660172 C 0.471261 0.0 0.0 0.0 0.0
atom 1.5554433112 -2.97576681 0.0527131274 O -0.401422 0.0 0.0 0.0 0.0
atom 1.1052803037 -0.7727321834 0.1158712873 O -0.206727 0.0 0.0 0.0 0.0
atom 0.7950256693 1.8819412841 -0.6849728504 H 0.137159 0.0 0.0 0.0 0.0
atom -0.828737223 1.9978074163 -0.0041701579 H 0.126843 0.0 0.0 0.0 0.0
atom 0.5682651583 1.8185976042 1.0678368528 H 0.132386 0.0 0.0 0.0 0.0
atom -2.7760797173 0.2762949088 0.1234173152 H 0.244663 0.0 0.0 0.0 0.0
atom -3.0097685976 -1.3543496684 -0.0883774578 H 0.252544 0.0 0.0 0.0 0.0
atom 1.0825505795 -3.8106937838 -0.0544033774 H 0.319954 0.0 0.0 0.0 0.0
energy -415.9009
charge 0.0
end
begin
comment source_file_name=qm9/dsgdb9nsd_005743.xyz structure_number=5743
atom 0.0586043724 1.3745894625 -0.0430369722 O -0.427074 0.0 0.0 0.0 0.0
atom 0.0891075933 0.0345981494 0.0661641001 C 0.414627 0.0 0.0 0.0 0.0
atom 1.1325334565 -0.7474465809 -0.0938712201 N -0.375881 0.0 0.0 0.0 0.0
atom 0.6939551566 -2.0547802553 0.1151390078 C -0.237224 0.0 0.0 0.0 0.0
atom -0.6399977262 -2.0177200837 0.4028943563 C 0.289684 0.0 0.0 0.0 0.0
atom -2.0514672867 -2.4758850511 0.7513812688 C -0.37759 0.0 0.0 0.0 0.0
atom -2.4291696258 -0.9449710991 0.7007846373 C -0.168796 0.0 0.0 0.0 0.0
atom -1.0097526081 -0.6912586836 0.3689945126 N -0.064797 0.0 0.0 0.0 0.0
atom 0.9594932191 1.6428037143 -0.2636268308 H 0.311959 0.0 0.0 0.0 0.0
atom 1.3747666112 -2.8867216395 0.0382245808 H 0.107112 0.0 0.0 0.0 0.0
atom -2.5571403816 -3.0889665884 0.0015039119 H 0.128623 0.0 0.0 0.0 0.0
atom -2.178447448 -2.9381816993 1.7332344898 H 0.128654 0.0 0.0 0.0 0.0
atom -3.1207829885 -0.6536010307 -0.0926968166 H 0.135361 0.0 0.0 0.0 0.0
atom -2.740493164 -0.5023696247 1.6494959043 H 0.135344 0.0 0.0 0.0 0.0
energy -378.723978
charge 0.0
end
begin
comment source_file_name=qm9/dsgdb9nsd_007154.xyz structure_number=7154
atom -0.0443176253 1.611222131 0.0570740515 C -0.38346 0.0 0.0 0.0 0.0
atom 0.0228826567 0.0822622893 -0.0070083058 C -0.174614 0.0 0.0 0.0 0.0
atom 0.7864293281 -0.5214638315 1.1770612823 C -0.15028 0.0 0.0 0.0 0.0
atom 0.7965594876 -2.0697050061 1.217060879 C -0.160969 0.0 0.0 0.0 0.0
atom 1.5363121684 -2.6949534043 0.016192015 C -0.382141 0.0 0.0 0.0 0.0
atom 1.371872362 -2.5432719033 2.4773833063 C 0.057968 0.0 0.0 0.0 0.0
atom 1.8660389953 -2.9178200369 3.5102479863 C 0.07349 0.0 0.0 0.0 0.0
atom 2.4535937619 -3.3775648929 4.761266769 C -0.497596 0.0 0.0 0.0 0.0
atom 0.9589926314 2.0515810013 0.0514243778 H 0.114743 0.0 0.0 0.0 0.0
atom -0.593036085 2.0229859813 -0.795743732 H 0.110671 0.0 0.0 0.0 0.0
atom -0.5460718366 1.9476625872 0.9711141244 H 0.114594 0.0 0.0 0.0 0.0
atom -0.9958515242 -0.3282638745 -0.0282272644 H 0.093515 0.0 0.0 0.0 0.0
atom 0.4921088555 -0.2172063816 -0.951508246 H 0.099585 0.0 0.0 0.0 0.0
atom 1.8242614218 -0.16313229 1.1737723279 H 0.098485 0.0 0.0 0.0 0.0
atom 0.3424296809 -0.1591480957 2.111936238 H 0.100861 0.0 0.0 0.0 0.0
atom -0.2505862414 -2.4054605767 1.175475306 H 0.096195 0.0 0.0 0.0 0.0
atom 1.5401804252 -3.7854114109 0.0923635678 H 0.121451 0.0 0.0 0.0 0.0
atom 1.0579547896 -2.421663555 -0.92834781 H 0.11371 0.0 0.0 0.0 0.0
atom 2.5768243724 -2.355722939 -0.0122468888 H 0.120114 0.0 0.0 0.0 0.0
atom 2.8454170142 -4.3967517587 4.6681510726 H 0.144669 0.0 0.0 0.0 0.0
atom 3.283159682 -2.7334033469 5.0740046829 H 0.144453 0.0 0.0 0.0 0.0
atom 1.7160830497 -3.381085776 5.5718291902 H 0.144556 0.0 0.0 0.0 0.0
energy -313.061838
charge 0.0
end
begin
comment source_file_name=qm9/dsgdb9nsd_008441.xyz structure_number=8441
atom -0.1145923181 1.5432768983 0.0918228972 C -0.517358 0.0 0.0 0.0 0.0
atom 0.1020179931 0.0616120114 0.0330943863 C 0.323956 0.0 0.0 0.0 0.0
atom -0.7924307942 -0.8716649474 0.7644172102 N -0.378762 0.0 0.0 0.0 0.0
atom 0.6733327186 -0.8994732331 1.0164661991 C -0.101619 0.0 0.0 0.0 0.0
atom 1.2626192483 -1.7759831092 -0.0871714313 C -0.270358 0.0 0.0 0.0 0.0
atom 0.6932448936 -0.7568524963 -1.1530174167 C 0.305973 0.0 0.0 0.0 0.0
atom -0.3202392777 -1.3132656487 -2.1488906149 C -0.450939 0.0 0.0 0.0 0.0
atom 1.821657886 -0.0056300038 -1.8589834724 C -0.450635 0.0 0.0 0.0 0.0
atom 0.7573653633 2.0930534156 -0.2762533064 H 0.125762 0.0 0.0 0.0 0.0
atom -0.9775563724 1.8438674394 -0.5149014392 H 0.126538 0.0 0.0 0.0 0.0
atom -0.3031649766 1.8692900516 1.1210201859 H 0.114389 0.0 0.0 0.0 0.0
atom -1.2162914866 -0.3367241179 1.5230811564 H 0.218533 0.0 0.0 0.0 0.0
atom 1.0606879536 -0.7282049351 2.0144437661 H 0.084778 0.0 0.0 0.0 0.0
atom 2.3548309364 -1.8122588906 -0.0900389575 H 0.09393 0.0 0.0 0.0 0.0
atom 0.8614099585 -2.7920731824 -0.128043885 H 0.100695 0.0 0.0 0.0 0.0
atom -1.1408699655 -1.8065629691 -1.623581516 H 0.136142 0.0 0.0 0.0 0.0
atom -0.7396872852 -0.5150331888 -2.7733310144 H 0.101978 0.0 0.0 0.0 0.0
atom 0.1510425438 -2.0410686848 -2.819736002 H 0.105152 0.0 0.0 0.0 0.0
atom 2.3744377692 -0.6800826726 -2.5222948588 H 0.113114 0.0 0.0 0.0 0.0
atom 1.4338643963 0.8168281952 -2.4711326826 H 0.110132 0.0 0.0 0.0 0.0
atom 2.5356813555 0.4156243283 -1.142388254 H 0.108602 0.0 0.0 0.0 0.0
energy -329.098161
charge 0.0
end
begin
comment source_file_name=qm9/dsgdb9nsd_009741.xyz structure_number=9741
atom -0.1693152464 1.4846736408 -0.1987174159 C -0.422695 0.0 0.0 0.0 0.0
atom 0.0608762369 -0.0077316956 -0.0697677095 C 0.356084 0.0 0.0 0.0 0.0
atom 0.8245489492 -0.5422250269 -1.1436608745 O -0.294758 0.0 0.0 0.0 0.0
atom 2.118647691 -0.8663738107 -0.6446803635 C -0.098634 0.0 0.0 0.0 0.0
atom 1.8397387199 -1.1845238597 0.8206964121 C -0.10051 0.0 0.0 0.0 0.0
atom 0.769277411 -0.2967727659 1.1326809007 O -0.29246 0.0 0.0 0.0 0.0
atom -1.2408877918 -0.8268421422 -0.0309774727 C 0.152959 0.0 0.0 0.0 0.0
atom -2.3458626305 -0.3667682053 -0.1201768061 O -0.2388 0.0 0.0 0.0 0.0
atom 0.7918811915 2.0007062299 -0.2546432854 H 0.118309 0.0 0.0 0.0 0.0
atom -0.7498240801 1.695109027 -1.0990287256 H 0.140491 0.0 0.0 0.0 0.0
atom -0.7253609119 1.8541590419 0.6656143209 H 0.139796 0.0 0.0 0.0 0.0
atom 2.5090518594 -1.7107047863 -1.2173350328 H 0.122055 0.0 0.0 0.0 0.0
atom 2.8026583931 -0.0127645027 -0.7471932838 H 0.109136 0.0 0.0 0.0 0.0
atom 1.5384612305 -2.2319484333 0.9562029423 H 0.109425 0.0 0.0 0.0 0.0
atom 2.6752237133 -0.9641413215 1.4900540939 H 0.121593 0.0 0.0 0.0 0.0
atom -1.0548951154 -1.9154382795 0.1039437397 H 0.078008 0.0 0.0 0.0 0.0
energy -420.886641
charge 0.0
end
begin
comment source_file_name=qm9/dsgdb9nsd_011024.xyz structure_number=11024
atom 0.0418606558 1.511363932 0.086270901 C -0.501653 0.0 0.0 0.0 0.0
atom -0.0120847123 0.0199965118 -0.0069191998 C 0.3459 0.0 0.0 0.0 0.0
atom -0.0113872482 -0.7429200269 -1.1063317038 C -0.180886 0.0 0.0 0.0 0.0
atom -0.0815514568 -2.2225526294 -0.7961650724 C -0.325571 0.0 0.0 0.0 0.0
atom -0.0733547744 -2.2660382183 0.7350765741 C 0.419538 0.0 0.0 0.0 0.0
atom -0.6942620646 -3.4175709894 1.4766171812 C -0.483794 0.0 0.0 0.0 0.0
atom 1.1309414149 -1.7258918277 1.2975249119 O -0.298914 0.0 0.0 0.0 0.0
atom -0.0334785431 -0.867695441 1.2013551928 C -0.135373 0.0 0.0 0.0 0.0
atom 0.9451009545 1.8436761663 0.6130726735 H 0.134627 0.0 0.0 0.0 0.0
atom 0.0349137909 1.9752370354 -0.9037561388 H 0.12455 0.0 0.0 0.0 0.0
atom -0.812424726 1.9065749028 0.6506768988 H 0.124677 0.0 0.0 0.0 0.0
atom 0.066228961 -0.3654592022 -2.120718416 H 0.09102 0.0 0.0 0.0 0.0
atom -0.991836697 -2.6847256696 -1.201349298 H 0.105582 0.0 0.0 0.0 0.0
atom 0.7679436619 -2.7782983077 -1.2122702996 H 0.120279 0.0 0.0 0.0 0.0
atom -0.168007556 -4.3522125818 1.2515916129 H 0.126485 0.0 0.0 0.0 0.0
atom -0.6414517588 -3.2518859664 2.5555512984 H 0.128802 0.0 0.0 0.0 0.0
atom -1.7434632539 -3.5473239351 1.1908102003 H 0.120057 0.0 0.0 0.0 0.0
atom -0.4353652779 -0.535326673 2.1557263135 H 0.084673 0.0 0.0 0.0 0.0
energy -347.809568
charge 0.0
end
begin
comment source_file_name=qm9/dsgdb9nsd_012277.xyz structure_number=12277
atom 0.670723454 1.4662924125 -0.0698288991 C -0.420866 0.0 0.0 0.0 0.0
atom 0.0285393161 0.0835899441 0.0123440743 C -0.009936 0.0 0.0 0.0 0.0
atom 0.6517155426 -1.0029225063 -0.9172373259 C -0.24463 0.0 0.0 0.0 0.0
atom 1.2938540272 -1.7101541601 0.3117054785 C -0.014798 0.0 0.0 0.0 0.0
atom 2.8000734853 -1.5612884828 0.4361984558 C -0.093073 0.0 0.0 0.0 0.0
atom 3.3938381044 -2.3361244422 -0.5956885139 O -0.422296 0.0 0.0 0.0 0.0
atom 0.4441273234 -0.7874042747 1.2445294098 C 0.1094 0.0 0.0 0.0 0.0
atom 1.0457566551 -0.1744223162 2.3633918293 O -0.427133 0.0 0.0 0.0 0.0
atom 1.7663743742 1.4212897129 -0.0334526175 H 0.107469 0.0 0.0 0.0 0.0
atom 0.4089715912 1.9539790449 -1.0144696315 H 0.12143 0.0 0.0 0.0 0.0
atom 0.3314279864 2.1121702188 0.7469390736 H 0.124071 0.0 0.0 0.0 0.0
atom -1.0554902224 0.1956852028 -0.0866629734 H 0.069423 0.0 0.0 0.0 0.0
atom -0.0907419808 -1.6165354953 -1.4317676883 H 0.099656 0.0 0.0 0.0 0.0
atom 1.3640968251 -0.637061297 -1.6617263033 H 0.103671 0.0 0.0 0.0 0.0
atom 1.0598518253 -2.77511191 0.3999825839 H 0.075795 0.0 0.0 0.0 0.0
atom 3.0979003957 -0.5024432081 0.34324716 H 0.067713 0.0 0.0 0.0 0.0
atom 3.1199770049 -1.9009842741 1.4329997287 H 0.098 0.0 0.0 0.0 0.0
atom 4.3492652296 -2.2631536134 -0.5142216954 H 0.285357 0.0 0.0 0.0 0.0
atom -0.4125579152 -1.3321222599 1.6502060169 H 0.08826 0.0 0.0 0.0 0.0
atom 1.7165658179 0.4403506742 2.0506445377 H 0.282486 0.0 0.0 0.0 0.0
energy -386.120588
charge 0.0
end
begin
comment source_file_name=qm9/dsgdb9nsd_013579.xyz structure_number=13579
atom -0.7535608929 1.0719883386 0.366865702 C -0.328552 0.0 0.0 0.0 0.0
atom 0.0253802596 -0.1484248493 0.1709028064 N -0.078189 0.0 0.0 0.0 0.0
atom 1.2732734978 -0.0666088313 -0.541731638 C -0.234005 0.0 0.0 0.0 0.0
atom 1.2728526156 -0.3718872644 0.9314429775 C -0.111915 0.0 0.0 0.0 0.0
atom 1.8245450921 0.6636441867 1.8590360993 C 0.246176 0.0 0.0 0.0 0.0
atom 1.8603726214 1.8543171028 1.6075142989 O -0.318037 0.0 0.0 0.0 0.0
atom 2.3191593192 0.1442107129 3.1232082041 C 0.239221 0.0 0.0 0.0 0.0
atom 2.7394631891 -0.2990456998 4.1607263089 C -0.396165 0.0 0.0 0.0 0.0
atom -0.149362263 1.9736352711 0.5162311203 H 0.147982 0.0 0.0 0.0 0.0
atom -1.3835198608 1.2030040332 -0.5181841527 H 0.126285 0.0 0.0 0.0 0.0
atom -1.4084892522 0.9366943194 1.2328884831 H 0.125931 0.0 0.0 0.0 0.0
atom 1.4878876261 -0.8731984564 -1.2382274627 H 0.12253 0.0 0.0 0.0 0.0
atom 1.6488101513 0.9172960385 -0.8179844202 H 0.136355 0.0 0.0 0.0 0.0
atom 1.3999793458 -1.3968958821 1.2673136234 H 0.105832 0.0 0.0 0.0 0.0
atom 3.1126003109 -0.6727911099 5.0834065596 H 0.216553 0.0 0.0 0.0 0.0
energy -362.603532
charge 0.0
end
begin
comment source_file_name=qm9/dsgdb9nsd_014749.xyz structure_number=14749
atom 0.0022276484 1.572045152 0.0181932714 C -0.380807 0.0 0.0 0.0 0.0
atom -0.0010690522 0.0411647582 0.006031288 C -0.164291 0.0 0.0 0.0 0.0
atom -1.4136419935 -0.5525352453 0.0077445566 C -0.182453 0.0 0.0 0.0 0.0
atom -1.4201840836 -2.0798726099 0.0044528503 C -0.122952 0.0 0.0 0.0 0.0
atom -2.7863885835 -2.5980069871 -0.0335704686 N -0.299537 0.0 0.0 0.0 0.0
atom -2.8345259626 -4.0532656354 0.0125709857 C -0.259498 0.0 0.0 0.0 0.0
atom -4.2175264653 -4.538599124 0.0236964579 C 0.255629 0.0 0.0 0.0 0.0
atom -5.3063525545 -4.922371681 0.0564994107 N -0.298204 0.0 0.0 0.0 0.0
atom 1.0221976385 1.9682558965 0.0152380791 H 0.114375 0.0 0.0 0.0 0.0
atom -0.515212911 1.9756423983 -0.8589605634 H 0.117831 0.0 0.0 0.0 0.0
atom -0.5041275309 1.9618223641 0.9081601986 H 0.115628 0.0 0.0 0.0 0.0
atom 0.5416010358 -0.3196529382 -0.8775905035 H 0.098765 0.0 0.0 0.0 0.0
atom 0.5531717219 -0.333842032 0.8765038627 H 0.097182 0.0 0.0 0.0 0.0
atom -1.9575774388 -0.1912124925 0.8924659867 H 0.092794 0.0 0.0 0.0 0.0
atom -1.9742901722 -0.1966187661 -0.8648355304 H 0.112959 0.0 0.0 0.0 0.0
atom -0.8984002929 -2.4488481697 -0.8891221938 H 0.10704 0.0 0.0 0.0 0.0
atom -0.8489498165 -2.457044251 0.8747421654 H 0.080849 0.0 0.0 0.0 0.0
atom -3.3191925084 -2.2195262717 0.7436653525 H 0.229239 0.0 0.0 0.0 0.0
atom -2.337350702 -4.4511986817 -0.8812699961 H 0.156086 0.0 0.0 0.0 0.0
atom -2.3123048566 -4.4980329534 0.8807084103 H 0.129363 0.0 0.0 0.0 0.0
energy -345.193122
charge 0.0
end
begin
comment source_file_name=qm9/dsgdb9nsd_016120.xyz structure_number=16120
atom 0.0347890284 -1.1785205091 -0.3036404504 N -0.338152 0.0 0.0 0.0 0.0
atom 0.0417830533 -0.0409775961 -0.0963039081 C 0.244213 0.0 0.0 0.0 0.0
atom 0.073905456 1.376024928 0.1125663087 C 0.267488 0.0 0.0 0.0 0.0
atom 0.2515450037 2.3633655395 -1.0385036982 C -0.381779 0.0 0.0 0.0 0.0
atom 1.3128523225 2.2401717533 0.0258180833 C 0.043799 0.0 0.0 0.0 0.0
atom 1.2752840542 3.0839992482 1.1373139964 O -0.24293 0.0 0.0 0.0 0.0
atom -0.0523285863 3.0572246764 1.6293706221 C 0.003491 0.0 0.0 0.0 0.0
atom -0.6346831186 1.8192517329 1.2405636607 O -0.286857 0.0 0.0 0.0 0.0
atom 0.4901646236 1.9344847802 -2.0052479376 H 0.151361 0.0 0.0 0.0 0.0
atom -0.4016096917 3.2279357302 -1.0679226504 H 0.144301 0.0 0.0 0.0 0.0
atom 2.3039119845 1.8651941743 -0.1915377637 H 0.144625 0.0 0.0 0.0 0.0
atom -0.0360019898 3.1217151658 2.7203664814 H 0.140733 0.0 0.0 0.0 0.0
atom -0.6333941497 3.8911928064 1.2079014958 H 0.109709 0.0 0.0 0.0 0.0
energy -398.577391
charge 0.0
end
begin
comment source_file_name=qm9/dsgdb9nsd_017561.xyz structure_number=17561
atom -0.0933116827 1.53115277 0.0085538335 C -0.514849 0.0 0.0 0.0 0.0
atom 0.11756798 0.0554882027 -0.0030559867 C 0.327596 0.0 0.0 0.0 0.0
atom -0.7603409573 -0.8028599057 0.7498660189 O -0.285688 0.0 0.0 0.0 0.0
atom 0.6525756318 -0.9153592569 0.9746587156 C -0.044148 0.0 0.0 0.0 0.0
atom 1.2084501521 -1.834586156 -0.1268391305 C -0.347305 0.0 0.0 0.0 0.0
atom 0.6299539422 -0.8231549282 -1.1446066561 C 0.40725 0.0 0.0 0.0 0.0
atom 0.1683801213 -0.9541626801 -2.5227837178 C -0.264631 0.0 0.0 0.0 0.0
atom 1.4107132253 -0.2978685374 -2.2009716091 O -0.274365 0.0 0.0 0.0 0.0
atom 0.7665990153 2.0377858882 -0.4390415215 H 0.142093 0.0 0.0 0.0 0.0
atom -0.9834197232 1.8012441534 -0.5706732512 H 0.13259 0.0 0.0 0.0 0.0
atom -0.2309006065 1.8919900154 1.031002517 H 0.135372 0.0 0.0 0.0 0.0
atom 1.010706201 -0.7666325623 1.9867159902 H 0.10759 0.0 0.0 0.0 0.0
atom 2.3005211448 -1.8497991451 -0.1757948652 H 0.123447 0.0 0.0 0.0 0.0
atom 0.8132044388 -2.8526467432 -0.1364985391 H 0.115998 0.0 0.0 0.0 0.0
atom 0.270746371 -1.9082685913 -3.0372059685 H 0.120564 0.0 0.0 0.0 0.0
atom -0.618347704 -0.3028713535 -2.9004955595 H 0.118485 0.0 0.0 0.0 0.0
energy -383.680637
charge 0.0
end
begin
comment source_file_name=qm9/dsgdb9nsd_018941.xyz structure_number=18941
atom -0.081330342 -1.2793185206 -0.0979857931 C -0.445755 0.0 0.0 0.0 0.0
atom -0.063727718 -0.0768929117 -0.0598967427 C 0.297948 0.0 0.0 0.0 0.0
atom -0.0394225888 1.3716720634 -0.0110343901 C -0.202502 0.0 0.0 0.0 0.0
atom 0.018783163 2.072985939 1.3731332525 C -0.03466 0.0 0.0 0.0 0.0
atom 1.5537073903 1.8032367028 1.5436201113 C -0.038661 0.0 0.0 0.0 0.0
atom 1.8484673859 3.2840707393 1.8556926665 C -0.267499 0.0 0.0 0.0 0.0
atom 0.7426687967 3.3304910851 0.7826323282 C -0.056169 0.0 0.0 0.0 0.0
atom 1.3334258143 2.0965922958 0.0194021423 C -0.03466 0.0 0.0 0.0 0.0
atom -0.0983233254 -2.3403205671 -0.133029225 H 0.191076 0.0 0.0 0.0 0.0
atom -0.7665756569 1.8020063929 -0.7096870854 H 0.091779 0.0 0.0 0.0 0.0
atom -0.7333002271 2.0640848489 2.1631076379 H 0.077569 0.0 0.0 0.0 0.0
atom 2.0020722372 0.9034396999 1.9633477391 H 0.083671 0.0 0.0 0.0 0.0
atom 1.5800850168 3.6405172154 2.8553660818 H 0.094171 0.0 0.0 0.0 0.0
atom 2.8334413114 3.6630221745 1.5647416811 H 0.094171 0.0 0.0 0.0 0.0
atom 0.2549370148 4.192145968 0.3240092439 H 0.071953 0.0 0.0 0.0 0.0
atom 2.1009503378 2.1149791143 -0.7554115782 H 0.077569 0.0 0.0 0.0 0.0
energy -309.355596
charge 0.0
end
begin
comment source_file_name=qm9/dsgdb9nsd_020391.xyz structure_number=20391
atom 0.0321972061 1.3605581495 -0.1584940492 C -0.091859 0.0 0.0 0.0 0.0
atom 1.4823849259 1.8835577533 0.1450192968 C -0.384783 0.0 0.0 0.0 0.0
atom 2.139160867 0.611427723 0.6059405901 C 0.125368 0.0 0.0 0.0 0.0
atom 1.1662776741 -0.3437401561 0.6914364844 C 0.487288 0.0 0.0 0.0 0.0
atom 1.7038966979 -1.4871632002 1.1418150452 N -0.339412 0.0 0.0 0.0 0.0
atom 3.0494832101 -1.3256932269 1.3686512512 N -0.242955 0.0 0.0 0.0 0.0
atom 3.3008915842 -0.055277123 1.046399261 C -0.147789 0.0 0.0 0.0 0.0
atom -0.0917417341 -0.0113564316 0.3544861858 O -0.285332 0.0 0.0 0.0 0.0
atom -0.7502866606 1.9509857115 0.3214705987 H 0.127505 0.0 0.0 0.0 0.0
atom -0.1633762986 1.3167253855 -1.2336942105 H 0.1262 0.0 0.0 0.0 0.0
atom 1.9249860093 2.3242215434 -0.7539843557 H 0.120276 0.0 0.0 0.0 0.0
atom 1.4692048035 2.6644699212 0.9145461743 H 0.120029 0.0 0.0 0.0 0.0
atom 1.2745593424 -2.3796385613 1.3101694934 H 0.276323 0.0 0.0 0.0 0.0
atom 4.3112971828 0.3143963717 1.1456292045 H 0.109141 0.0 0.0 0.0 0.0
energy -378.727796
charge 0.0
end
begin
comment source_file_name=qm9/dsgdb9nsd_021616.xyz structure_number=21616
atom 0.0216866232 1.3612023527 0.1436477259 N -0.604506 0.0 0.0 0.0 0.0
atom -0.0359361369 -0.0062788449 0.0380473105 C 0.424784 0.0 0.0 0.0 0.0
atom -1.132864237 -0.739793255 0.0488987435 N -0.350353 0.0 0.0 0.0 0.0
atom -0.6356911464 -2.0134410718 0.0000220444 C 0.245943 0.0 0.0 0.0 0.0
atom 0.683025415 -2.1175442699 -0.0480409649 N -0.255938 0.0 0.0 0.0 0.0
atom 1.0553500345 -0.8111163907 -0.0195309003 N -0.238196 0.0 0.0 0.0 0.0
atom -1.474929117 -3.1674805528 -0.0085390673 C 0.276182 0.0 0.0 0.0 0.0
atom -2.1639915713 -4.0955187328 -0.0158646126 N -0.331124 0.0 0.0 0.0 0.0
atom 0.7507913105 1.8195693539 -0.3835161628 H 0.264525 0.0 0.0 0.0 0.0
atom -0.8823591028 1.7920357327 0.009951898 H 0.280977 0.0 0.0 0.0 0.0
atom 2.0338156783 -0.5745319614 -0.0004610743 H 0.287706 0.0 0.0 0.0 0.0
energy -389.798537
charge 0.0
end
begin
comment source_file_name=qm9/dsgdb9nsd_022924.xyz structure_number=22924
atom -0.134841026 1.2698426235 -0.0862988381 O -0.388457 0.0 0.0 0.0 0.0
atom -0.0285127264 -0.1199605607 -0.2729451912 N -0.248959 0.0 0.0 0.0 0.0
atom -1.1478742227 -0.6936295482 -0.1139896745 C 0.323374 0.0 0.0 0.0 0.0
atom -2.5140208973 -0.2941603559 0.4111830988 C -0.330455 0.0 0.0 0.0 0.0
atom -2.8186977159 -1.8004040931 0.6725846412 C -0.102625 0.0 0.0 0.0 0.0
atom -3.5737557006 -2.499005114 -0.4796598346 C -0.220182 0.0 0.0 0.0 0.0
atom -2.2288502962 -2.7877500252 -1.2108017624 C -0.271202 0.0 0.0 0.0 0.0
atom -1.4193183868 -2.1745354785 -0.0341979299 C 0.348355 0.0 0.0 0.0 0.0
atom -0.4159735306 -3.0118032864 0.4329831914 O -0.468666 0.0 0.0 0.0 0.0
atom 0.7732401091 1.5635007704 -0.2177070142 H 0.307639 0.0 0.0 0.0 0.0
atom -2.4469913141 0.3344524855 1.3039939293 H 0.130806 0.0 0.0 0.0 0.0
atom -3.1732526944 0.203916576 -0.3060123926 H 0.120366 0.0 0.0 0.0 0.0
atom -3.0546385856 -2.0729217894 1.7005367246 H 0.076603 0.0 0.0 0.0 0.0
atom -4.089136918 -3.4111151249 -0.1705714278 H 0.106944 0.0 0.0 0.0 0.0
atom -4.2884026545 -1.8685867076 -1.0156754281 H 0.099106 0.0 0.0 0.0 0.0
atom -2.0022559333 -3.8521319747 -1.2989578453 H 0.122209 0.0 0.0 0.0 0.0
atom -2.0790243724 -2.3162653971 -2.1845135137 H 0.108259 0.0 0.0 0.0 0.0
atom 0.2174709655 -2.4729129696 0.920705417 H 0.286884 0.0 0.0 0.0 0.0
energy -439.015684
charge 0.0
end
begin
comment source_file_name=qm9/dsgdb9nsd_024288.xyz structure_number=24288
atom 0.0141691548 1.4978129497 0.0919436876 C -0.303923 0.0 0.0 0.0 0.0
atom 1.3178833687 0.742225566 -0.0131336198 C -0.001739 0.0 0.0 0.0 0.0
atom 2.059608587 0.3791020373 1.1894442826 N -0.418216 0.0 0.0 0.0 0.0
atom 1.2003247923 -0.4051356621 1.9768619614 C 0.205207 0.0 0.0 0.0 0.0
atom 1.1514523448 -1.032545264 3.1782271262 C -0.135938 0.0 0.0 0.0 0.0
atom -0.0180008853 -1.7604123137 3.2456012002 O -0.165038 0.0 0.0 0.0 0.0
atom -0.6974563459 -1.5735802231 2.0777660346 C -0.166811 0.0 0.0 0.0 0.0
atom 0.0015007967 -0.7422640266 1.2687950052 C 0.264842 0.0 0.0 0.0 0.0
atom -0.0034970949 -0.0217443282 -0.0247922786 C -0.209239 0.0 0.0 0.0 0.0
atom -0.2654305046 1.9353071885 1.0443438654 H 0.119058 0.0 0.0 0.0 0.0
atom -0.2967255284 2.0615554694 -0.7812637802 H 0.114876 0.0 0.0 0.0 0.0
atom 1.9188697724 0.8511881821 -0.9091860443 H 0.09947 0.0 0.0 0.0 0.0
atom 2.5208670628 1.1495848323 1.6555120648 H 0.237377 0.0 0.0 0.0 0.0
atom 1.7872782128 -1.0878422292 4.0440490961 H 0.126241 0.0 0.0 0.0 0.0
atom -1.6375695742 -2.0935090895 1.9990762264 H 0.133788 0.0 0.0 0.0 0.0
atom -0.3873528089 -0.4778089588 -0.9289659876 H 0.100044 0.0 0.0 0.0 0.0
energy -400.747319
charge 0.0
end
begin
comment source_file_name=qm9/dsgdb9nsd_025382.xyz structure_number=25382
atom -0.1025416641 1.2927884485 -0.3287489651 N -0.547981 0.0 0.0 0.0 0.0
atom 0.0074725278 0.0657121442 0.0193703853 C 0.350182 0.0 0.0 0.0 0.0
atom -1.1260659215 -0.6650536515 0.3595460324 N -0.392985 0.0 0.0 0.0 0.0
atom -1.0787087659 -1.9724003454 0.7382005383 C 0.283374 0.0 0.0 0.0 0.0
atom -2.3609881491 -2.6172782876 1.0696463267 C 0.101882 0.0 0.0 0.0 0.0
atom -3.418821276 -2.0312434246 1.0147696925 O -0.278604 0.0 0.0 0.0 0.0
atom 0.1170256894 -2.6220198656 0.7964672717 C -0.108447 0.0 0.0 0.0 0.0
atom 1.2971117836 -1.9875006049 0.4793883953 N -0.231148 0.0 0.0 0.0 0.0
atom 1.2339780314 -0.7459307314 0.1218078326 C -0.041151 0.0 0.0 0.0 0.0
atom 0.8124832534 1.6844304342 -0.5451326202 H 0.219984 0.0 0.0 0.0 0.0
atom -2.0313446568 -0.2104361592 0.32636981 H 0.280239 0.0 0.0 0.0 0.0
atom -2.2840539447 -3.6791822296 1.3729776698 H 0.104059 0.0 0.0 0.0 0.0
atom 0.1764904953 -3.6613057172 1.0950607379 H 0.130438 0.0 0.0 0.0 0.0
atom 2.1663395474 -0.2411001097 -0.1297467371 H 0.130156 0.0 0.0 0.0 0.0
energy -432.910612
charge 0.0
end
begin
comment source_file_name=qm9/dsgdb9nsd_026743.xyz structure_number=26743
atom -0.0462448662 1.3912019364 -0.1059302212 O -0.458366 0.0 0.0 0.0 0.0
atom 0.0218527858 0.0226730454 -0.0038093872 C 0.142444 0.0 0.0 0.0 0.0
atom 0.0569815734 -0.7945128068 -1.0932298561 C 0.337683 0.0 0.0 0.0 0.0
atom 0.0831868269 -0.5268474573 -2.4190698219 O -0.444676 0.0 0.0 0.0 0.0
atom 0.0426117631 -2.1133979438 -0.653945194 N -0.105871 0.0 0.0 0.0 0.0
atom 0.0625702866 -3.246540359 -1.4598979256 C 0.173017 0.0 0.0 0.0 0.0
atom 0.0621980468 -4.3703134761 -1.0266516834 O -0.302532 0.0 0.0 0.0 0.0
atom 0.0096653472 -2.1117630401 0.7452034798 C -0.076284 0.0 0.0 0.0 0.0
atom -0.0122811874 -0.8173067992 1.1657171078 C -0.27615 0.0 0.0 0.0 0.0
atom 0.5873591146 1.7850444344 0.5027175756 H 0.302509 0.0 0.0 0.0 0.0
atom 0.0852504573 0.4340739747 -2.5091743064 H 0.316862 0.0 0.0 0.0 0.0
atom 0.0787189145 -2.9903958538 -2.5304917348 H 0.122219 0.0 0.0 0.0 0.0
atom 0.0014090868 -3.0512203858 1.2683878986 H 0.155249 0.0 0.0 0.0 0.0
atom -0.0519495295 -0.4810948089 2.1908238287 H 0.113899 0.0 0.0 0.0 0.0
energy -473.86343
charge 0.0
end
begin
comment source_file_name=qm9/dsgdb9nsd_028183.xyz structure_number=28183
atom 0.0656620022 1.3451840941 0.173551836 N -0.595128 0.0 0.0 0.0 0.0
atom -0.0335748693 -0.0387493735 0.0548924617 C 0.356378 0.0 0.0 0.0 0.0
atom -1.138839785 -0.7405784165 0.1201650946 N -0.397973 0.0 0.0 0.0 0.0
atom -0.6975789156 -2.0610614692 0.0897857275 C 0.207728 0.0 0.0 0.0 0.0
atom 0.6610090877 -2.0974052789 0.003378198 C 0.394119 0.0 0.0 0.0 0.0
atom 1.1286035679 -0.8052768992 -0.0632539639 N -0.444308 0.0 0.0 0.0 0.0
atom 1.1784950371 -3.3257687801 -0.1334800577 O -0.215776 0.0 0.0 0.0 0.0
atom 0.0522007248 -4.1494125917 -0.1027519906 C -0.030276 0.0 0.0 0.0 0.0
atom -1.1043697276 -3.4369468391 0.0246391629 C -0.308431 0.0 0.0 0.0 0.0
atom 0.5480074454 1.7832783876 -0.603665956 H 0.250056 0.0 0.0 0.0 0.0
atom -0.8632637155 1.7389421338 0.2627809551 H 0.263673 0.0 0.0 0.0 0.0
atom 2.0582321583 -0.4710316007 0.1260605644 H 0.2727 0.0 0.0 0.0 0.0
atom 0.2714800947 -5.20172701 -0.1549873019 H 0.132614 0.0 0.0 0.0 0.0
atom -2.0965054451 -3.8583737368 0.0648777398 H 0.114625 0.0 0.0 0.0 0.0
energy -432.896281
charge 0.0
end
begin
comment source_file_name=qm9/dsgdb9nsd_029523.xyz structure_number=29523
atom 0.0372523352 1.4389897229 -0.1720294828 N -0.61662 0.0 0.0 0.0 0.0
atom 0.0239692487 0.034223567 -0.0460186634 C 0.097312 0.0 0.0 0.0 0.0
atom -1.0695721094 -0.8169019729 -0.0293595184 C -0.160135 0.0 0.0 0.0 0.0
atom -0.6150840649 -2.1319336388 0.007611971 N -0.392157 0.0 0.0 0.0 0.0
atom 0.7491088006 -2.1127252919 0.0439589646 C 0.29227 0.0 0.0 0.0 0.0
atom 1.1645926633 -0.81110895 -0.0055685525 C 0.245185 0.0 0.0 0.0 0.0
atom 2.583232383 -0.6625292697 0.0153183233 N -0.423481 0.0 0.0 0.0 0.0
atom 3.0609755601 -2.0477894196 0.3088676768 C -0.155558 0.0 0.0 0.0 0.0
atom 1.9005608014 -3.0665070345 0.0097810555 C -0.35744 0.0 0.0 0.0 0.0
atom 0.7999776229 1.8428718779 0.3598777105 H 0.243472 0.0 0.0 0.0 0.0
atom -0.8293392368 1.8595455619 0.1405170345 H 0.234278 0.0 0.0 0.0 0.0
atom -2.1247024773 -0.5953314021 -0.0327978436 H 0.099207 0.0 0.0 0.0 0.0
atom -1.2072670273 -2.9331086391 0.1291148743 H 0.253301 0.0 0.0 0.0 0.0
atom 2.9274042489 -0.3609309264 -0.8932759787 H 0.222513 0.0 0.0 0.0 0.0
atom 3.9736977949 -2.2655308314 -0.2512100063 H 0.099338 0.0 0.0 0.0 0.0
atom 3.3031109232 -2.1008006904 1.3759649506 H 0.113719 0.0 0.0 0.0 0.0
atom 1.8796876359 -3.8568811072 0.7679322954 H 0.103515 0.0 0.0 0.0 0.0
atom 2.0117216477 -3.5602675858 -0.967645931 H 0.101281 0.0 0.0 0.0 0.0
energy -398.144253
charge 0.0
end
begin
comment source_file_name=qm9/dsgdb9nsd_030727.xyz structure_number=30727
atom -0.3382005912 1.5441773531 -0.0221165654 C -0.362902 0.0 0.0 0.0 0.0
atom 0.0476305128 0.0540408202 0.0359342666 C -0.302499 0.0 0.0 0.0 0.0
atom 0.7803004168 -0.4370020348 -1.1690236155 C 0.231625 0.0 0.0 0.0 0.0
atom 2.1103990994 -0.7475314764 -1.3456366138 C 0.156066 0.0 0.0 0.0 0.0
atom 3.0502839932 -0.6452916551 -0.351828053 O -0.455793 0.0 0.0 0.0 0.0
atom 2.3259371015 -1.1569155621 -2.6956537321 C 0.172122 0.0 0.0 0.0 0.0
atom 3.6316020801 -1.5790092754 -3.2962600548 C -0.530545 0.0 0.0 0.0 0.0
atom 1.0960953923 -1.0807638797 -3.3139123251 C -0.174878 0.0 0.0 0.0 0.0
atom 0.1779145311 -0.6437027139 -2.3975921901 N -0.314119 0.0 0.0 0.0 0.0
atom 0.5528491547 2.1702401417 -0.1257593819 H 0.126383 0.0 0.0 0.0 0.0
atom -0.9907706507 1.7544900508 -0.8765405133 H 0.103951 0.0 0.0 0.0 0.0
atom -0.8690260736 1.8482418912 0.886157837 H 0.107929 0.0 0.0 0.0 0.0
atom 0.6903471117 -0.12121865 0.9043655391 H 0.12551 0.0 0.0 0.0 0.0
atom -0.8587521942 -0.5464054425 0.1994880574 H 0.094297 0.0 0.0 0.0 0.0
atom 3.8591881249 -1.0655098453 -0.6572498812 H 0.293098 0.0 0.0 0.0 0.0
atom 4.0519959896 -2.4660331076 -2.8022089945 H 0.116533 0.0 0.0 0.0 0.0
atom 3.5122648423 -1.8317012727 -4.3535443926 H 0.126369 0.0 0.0 0.0 0.0
atom 4.3907761235 -0.787838216 -3.2367382651 H 0.122031 0.0 0.0 0.0 0.0
atom 0.8128213265 -1.3062720208 -4.3298755226 H 0.110415 0.0 0.0 0.0 0.0
atom -0.8015093109 -0.5156554347 -2.5781143389 H 0.254407 0.0 0.0 0.0 0.0
energy -403.193969
charge 0.0
end