begin
comment line
lattice     16.8382231487      0.0000000000      0.0000000000   
lattice      8.4191115649     14.5823290045      0.0000000000   
lattice      0.0000000000      0.0000000000     28.9636194330   
atom      0.0000000000      0.0000000000      0.0000000000   Be   0.0000000000      0.0000000000      0.0034332017      0.0000433757     -0.0034383172   
atom      4.2095557824      7.2911645023      0.0000000000   Be   0.0000000000      0.0000000000      0.0048401243      0.0031104690     -0.0022958430   
atom      8.4191115743      0.0000000000      0.0000000000   Be   0.0000000000      0.0000000000      0.0029808988     -0.0022217711      0.0101913817   
atom     12.6286673568      7.2911645023      0.0000000000   Be   0.0000000000      0.0000000000     -0.0008746627     -0.0026731276      0.0045152453   
atom      8.4918864495     14.5399639849      6.6632718104   Be   0.0000000000      0.0000000000     -0.0069632309      0.0062639336     -0.0102859207   
atom      4.3236330604      7.4273608304      6.6363321687   Be   0.0000000000      0.0000000000     -0.0096114837     -0.0080775231     -0.0055334773   
atom      8.4542719732      0.0808581394      6.8102120720   Be   0.0000000000      0.0000000000     -0.0044536958     -0.0040107771      0.0020355075   
atom     12.5318964887      7.2774508426      6.7392126828   Be   0.0000000000      0.0000000000      0.0122413478      0.0054058480      0.0018033499   
atom     23.1562645133     13.3554309005      9.9473955047   Be   0.0000000000      0.0000000000      0.0051704310      0.0027855017      0.0043340670   
atom      6.4424369422      5.9485664085      9.9956671418   Be   0.0000000000      0.0000000000     -0.0009305510      0.0087150572      0.0063951917   
atom     20.9929884459      9.6359903196     10.0986081898   Be   0.0000000000      0.0000000000      0.0063545581      0.0139927095     -0.0000022072   
atom     18.9537726178      6.3720216397     10.0345206787   Be   0.0000000000      0.0000000000     -0.0005187596     -0.0214866241      0.0069779530   
atom     17.0241150259      2.3786343638      9.8301722063   Be   0.0000000000      0.0000000000     -0.0158175958      0.0092277525      0.0142576084   
atom     14.8793781741      6.1386368595     10.2217748229   Be   0.0000000000      0.0000000000     -0.0064701606      0.0017535446      0.0023058994   
atom     10.6811625936      5.9385632225     10.2591827856   Be   0.0000000000      0.0000000000     -0.0066934864      0.0123638808      0.0067372355   
atom     12.4751063801     10.0215657638     10.5268822242   Be   0.0000000000      0.0000000000      0.0058148386     -0.0254775905     -0.0061315344   
atom     10.4574921358     13.3164985611      9.9090175504   Be   0.0000000000      0.0000000000     -0.0021511294      0.0097691291      0.0171486555   
atom      8.5421674966      2.2288483259     10.5964227159   Be   0.0000000000      0.0000000000     -0.0014812216      0.0091582493     -0.0038772319   
atom     14.5423687103     13.3607248693     10.4347130359   Be   0.0000000000      0.0000000000      0.0096248204      0.0119259668     -0.0029847456   
atom     19.1505174005     13.3190336990     10.5085534665   Be   0.0000000000      0.0000000000     -0.0047350173      0.0079261501     -0.0097889922   
atom      8.4191110660      4.8607720574      0.8713904755   W   0.0000000000      0.0000000000      0.0042451338     -0.0025118927      0.0017798186   
atom     12.6286668485     12.1519365596      0.8713904755   W   0.0000000000      0.0000000000      0.0003639175     -0.0022304903      0.0018340918   
atom     16.8382226404      4.8607720574      0.8713904755   W   0.0000000000      0.0000000000      0.0017680479      0.0000548889     -0.0049598365   
atom     21.0477784228     12.1519365596      0.8713904755   W   0.0000000000      0.0000000000     -0.0038264312      0.0021260351      0.0105664276   
atom     12.5985559022      2.5305873359      7.6813204419   W   0.0000000000      0.0000000000      0.0202749957     -0.0189603265      0.0221100365   
atom      8.4160050842      9.7239402830      7.7205507955   W   0.0000000000      0.0000000000     -0.0031697724     -0.0023628677     -0.0105773340   
atom      4.2277363519      2.4277673340      7.8119521583   W   0.0000000000      0.0000000000      0.0054454684      0.0073050558     -0.0186905367   
atom     16.8576022533      9.8554516005      7.8741428419   W   0.0000000000      0.0000000000     -0.0039178396     -0.0093394406     -0.0044244189   
atom      8.0572890507      9.6840081791     12.2396826431   W   0.0000000000      0.0000000000      0.0102108393      0.0046227800      0.0236219605   
atom      4.0710960867      2.8321921884     12.3062726109   W   0.0000000000      0.0000000000     -0.0002902338     -0.0130440299      0.0073723641   
atom     13.1121026811      2.3687444825     12.3659805331   W   0.0000000000      0.0000000000     -0.0082279161     -0.0055551038     -0.0086847014   
atom     16.9632874450      9.9146446278     12.5084065250   W   0.0000000000      0.0000000000     -0.0026862888     -0.0102625574     -0.0149429660   
atom      8.4769853812     12.3148398400      3.2195617591   Be   0.0000000000      0.0000000000     -0.0043178224     -0.0159773436      0.0010216712   
atom      4.2065740714      4.8847016593      3.0905328894   Be   0.0000000000      0.0000000000      0.0048584297     -0.0031374971      0.0092924129   
atom     10.5421905108      1.3030788155      3.4450588871   Be   0.0000000000      0.0000000000     -0.0023022432     -0.0097801808     -0.0128912262   
atom     10.5831573981      8.3072464592      3.3193127541   Be   0.0000000000      0.0000000000     -0.0000614248      0.0184336753     -0.0026699595   
atom     12.6501531837      4.8284449297      3.3506939668   Be   0.0000000000      0.0000000000      0.0029707786      0.0006526907     -0.0058563356   
atom      2.1818713607      1.2519098605      3.2600670912   Be   0.0000000000      0.0000000000     -0.0058703307     -0.0004345442     -0.0029533466   
atom      6.5392185851      8.5349277989      3.1566843480   Be   0.0000000000      0.0000000000     -0.0143711369      0.0038550953      0.0005969597   
atom     14.7200022016      8.4000682329      3.2336392367   Be   0.0000000000      0.0000000000     -0.0000771402      0.0104542535      0.0052914823   
atom      6.2664166432      1.2735401208      3.1443113795   Be   0.0000000000      0.0000000000      0.0030931772     -0.0023650660      0.0073845672   
atom     14.7655129768      1.1668146796      3.0606606813   Be   0.0000000000      0.0000000000     -0.0056759688      0.0102491781      0.0141842135   
atom     16.5828795691     12.1703091276      3.4854295384   Be   0.0000000000      0.0000000000      0.0225425432      0.0001864513     -0.0122059408   
atom     18.9721298157      8.4555943878      3.1096207835   Be   0.0000000000      0.0000000000     -0.0033088187      0.0122426941      0.0088258974   
atom     16.9661129021      4.9007496582      5.5913960301   W   0.0000000000      0.0000000000     -0.0184854992      0.0030860210     -0.0002475754   
atom     21.0729003782     12.1936172306      5.6842368847   W   0.0000000000      0.0000000000     -0.0083834167     -0.0014913727     -0.0239113026   
atom      8.4183763302      4.8671487640      5.6670866568   W   0.0000000000      0.0000000000     -0.0006437916     -0.0027489055     -0.0082745214   
atom     12.5349869730     12.1945340217      5.6436701497   W   0.0000000000      0.0000000000      0.0197268967     -0.0115906154     -0.0000517169   
atom     22.7511631323     12.8699621279     18.5313926342   H   0.0000000000      0.0000000000     -0.0000155881      0.0002045463     -0.0146216934   
energy    -11.1745311354   
charge      0.0000000000   
end
begin
comment line
lattice     16.8382231487      0.0000000000      0.0000000000   
lattice      8.4191115649     14.5823290045      0.0000000000   
lattice      0.0000000000      0.0000000000     28.9636194330   
atom      0.0000000000      0.0000000000      0.0000000000   Be   0.0000000000      0.0000000000      0.0032218533     -0.0000921462     -0.0031089629   
atom      4.2095557824      7.2911645023      0.0000000000   Be   0.0000000000      0.0000000000      0.0050549455      0.0028022863     -0.0022794961   
atom      8.4191115743      0.0000000000      0.0000000000   Be   0.0000000000      0.0000000000      0.0029270415     -0.0021608468      0.0102042315   
atom     12.6286673568      7.2911645023      0.0000000000   Be   0.0000000000      0.0000000000     -0.0008355276     -0.0026222634      0.0048053657   
atom      8.4883783741     14.5471968200      6.6718551791   Be   0.0000000000      0.0000000000     -0.0066926159      0.0055547516     -0.0115858509   
atom      4.3219867031      7.4287072168      6.6448205367   Be   0.0000000000      0.0000000000     -0.0094276152     -0.0081104076     -0.0064426505   
atom      8.4453955355      0.0754518867      6.8135756171   Be   0.0000000000      0.0000000000     -0.0037936250     -0.0036138899      0.0017685374   
atom     12.5381759673      7.2845608946      6.7369115232   Be   0.0000000000      0.0000000000      0.0118313041      0.0048576769      0.0022137123   
atom     23.1620003698     13.3545473572      9.9475646523   Be   0.0000000000      0.0000000000      0.0043738750      0.0029162946      0.0042841530   
atom      6.4602859639      5.9567287214      9.9943965078   Be   0.0000000000      0.0000000000     -0.0024177811      0.0074397643      0.0067483350   
atom     20.9972170289      9.6325605558     10.0978082146   Be   0.0000000000      0.0000000000      0.0060336385      0.0144647446      0.0001609335   
atom     18.9505164422      6.3731094815     10.0327501326   Be   0.0000000000      0.0000000000     -0.0000828850     -0.0217520127      0.0072734079   
atom     17.0258619915      2.3740164319      9.8234335306   Be   0.0000000000      0.0000000000     -0.0160072395      0.0098012896      0.0151060575   
atom     14.8804873921      6.1377538995     10.2220010287   Be   0.0000000000      0.0000000000     -0.0066640160      0.0017514140      0.0023591586   
atom     10.6833380079      5.9329051330     10.2625990445   Be   0.0000000000      0.0000000000     -0.0064966950      0.0129073543      0.0066553535   
atom     12.4727702450     10.0202049409     10.5270539784   Be   0.0000000000      0.0000000000      0.0059368263     -0.0254142023     -0.0061270381   
atom     10.4581680221     13.3153389743      9.9021392701   Be   0.0000000000      0.0000000000     -0.0019526555      0.0098249376      0.0175773137   
atom      8.5410686342      2.2242216445     10.5964899115   Be   0.0000000000      0.0000000000     -0.0015541370      0.0095927513     -0.0038445545   
atom     14.5421943505     13.3592918638     10.4310836047   Be   0.0000000000      0.0000000000      0.0094402584      0.0119217567     -0.0028870177   
atom     19.1460071982     13.3235648661     10.5037953231   Be   0.0000000000      0.0000000000     -0.0041688482      0.0073776425     -0.0098440540   
atom      8.4191110660      4.8607720574      0.8713904755   W   0.0000000000      0.0000000000      0.0042360264     -0.0025777098      0.0021825290   
atom     12.6286668485     12.1519365596      0.8713904755   W   0.0000000000      0.0000000000      0.0000725062     -0.0021433987      0.0017660391   
atom     16.8382226404      4.8607720574      0.8713904755   W   0.0000000000      0.0000000000      0.0018215271      0.0000347079     -0.0048020393   
atom     21.0477784228     12.1519365596      0.8713904755   W   0.0000000000      0.0000000000     -0.0037138616      0.0022548818      0.0109079372   
atom     12.5969539978      2.5315857879      7.6813942991   W   0.0000000000      0.0000000000      0.0203784062     -0.0192590043      0.0214775717   
atom      8.4165142721      9.7250511649      7.7172781961   W   0.0000000000      0.0000000000     -0.0031435947     -0.0022527848     -0.0104422552   
atom      4.2284870841      2.4282758199      7.8105535051   W   0.0000000000      0.0000000000      0.0056669725      0.0077933830     -0.0176516985   
atom     16.8579646960      9.8554482465      7.8734514803   W   0.0000000000      0.0000000000     -0.0038136761     -0.0093727061     -0.0043580063   
atom      8.0582969026      9.6842950135     12.2413775941   W   0.0000000000      0.0000000000      0.0099419518      0.0057972462      0.0249891190   
atom      4.0706028109      2.8315507118     12.3078974700   W   0.0000000000      0.0000000000     -0.0001845881     -0.0127181923      0.0061875226   
atom     13.1115907991      2.3686400730     12.3653873582   W   0.0000000000      0.0000000000     -0.0077771711     -0.0070269678     -0.0071825926   
atom     16.9637820678      9.9146654805     12.5065186762   W   0.0000000000      0.0000000000     -0.0022742416     -0.0099918921     -0.0145282631   
atom      8.4771933333     12.3151358613      3.2292393733   Be   0.0000000000      0.0000000000     -0.0045261299     -0.0156519595      0.0005021238   
atom      4.2115969134      4.8863620032      3.1006901411   Be   0.0000000000      0.0000000000      0.0044442185     -0.0032401991      0.0087346620   
atom     10.5432470252      1.2907767253      3.4497260847   Be   0.0000000000      0.0000000000     -0.0026553124     -0.0086106843     -0.0130771491   
atom     10.5843335480      8.3093296907      3.3244025309   Be   0.0000000000      0.0000000000     -0.0001629697      0.0183830684     -0.0030493808   
atom     12.6447522394      4.8313769986      3.3547462668   Be   0.0000000000      0.0000000000      0.0034577425      0.0004675750     -0.0061550150   
atom      2.1777427126      1.2494855483      3.2602072752   Be   0.0000000000      0.0000000000     -0.0055761992     -0.0000302685     -0.0029123651   
atom      6.5386573671      8.5408213930      3.1551550689   Be   0.0000000000      0.0000000000     -0.0141586585      0.0033764298      0.0007128396   
atom     14.7256584133      8.4045565280      3.2363024415   Be   0.0000000000      0.0000000000     -0.0005605096      0.0100142282      0.0050366512   
atom      6.2632563612      1.2714267039      3.1445016704   Be   0.0000000000      0.0000000000      0.0033346419     -0.0020658063      0.0073468231   
atom     14.7597676908      1.1732397996      3.0612677587   Be   0.0000000000      0.0000000000     -0.0052591958      0.0096434550      0.0140332327   
atom     16.5783981602     12.1706207520      3.4839961289   Be   0.0000000000      0.0000000000      0.0229926384      0.0001675341     -0.0121610781   
atom     18.9724476372      8.4516963855      3.1026043467   Be   0.0000000000      0.0000000000     -0.0033511624      0.0126905019      0.0093526734   
atom     16.9676976315      4.9009609561      5.5914290486   W   0.0000000000      0.0000000000     -0.0188140432      0.0032133750     -0.0004461694   
atom     21.0726235578     12.1943956354      5.6855958578   W   0.0000000000      0.0000000000     -0.0084360746     -0.0017168654     -0.0240101217   
atom      8.4191344712      4.8674714710      5.6677215393   W   0.0000000000      0.0000000000     -0.0005971141     -0.0027439271     -0.0085923377   
atom     12.5349701348     12.1969074415      5.6435641429   W   0.0000000000      0.0000000000      0.0195572444     -0.0117857021     -0.0000856564   
atom     22.7511503352     12.8700076248     18.2347310244   H   0.0000000000      0.0000000000      0.0001102070      0.0002202877     -0.0164683973   
energy    -11.1792152601   
charge      0.0000000000   
end
begin
comment line
lattice     16.8382231487      0.0000000000      0.0000000000   
lattice      8.4191115649     14.5823290045      0.0000000000   
lattice      0.0000000000      0.0000000000     28.9636194330   
atom      0.0000000000      0.0000000000      0.0000000000   Be   0.0000000000      0.0000000000      0.0029979420     -0.0002273392     -0.0027783102   
atom      4.2095557824      7.2911645023      0.0000000000   Be   0.0000000000      0.0000000000      0.0052601473      0.0024966607     -0.0022691881   
atom      8.4191115743      0.0000000000      0.0000000000   Be   0.0000000000      0.0000000000      0.0028715527     -0.0021010439      0.0101959761   
atom     12.6286673568      7.2911645023      0.0000000000   Be   0.0000000000      0.0000000000     -0.0007912133     -0.0025642150      0.0050801849   
atom      8.4846961915     14.5545740203      6.6801373260   Be   0.0000000000      0.0000000000     -0.0064142434      0.0048437315     -0.0128096466   
atom      4.3200950971      7.4298425969      6.6531414949   Be   0.0000000000      0.0000000000     -0.0091943254     -0.0081626010     -0.0073865663   
atom      8.4364203416      0.0699515781      6.8169855040   Be   0.0000000000      0.0000000000     -0.0031232394     -0.0031735338      0.0015068344   
atom     12.5447632485      7.2917975212      6.7346682909   Be   0.0000000000      0.0000000000      0.0114201767      0.0043029873      0.0026377464   
atom     23.1678498843     13.3537396420      9.9478453097   Be   0.0000000000      0.0000000000      0.0035837816      0.0030268104      0.0042210721   
atom      6.4780723474      5.9650846875      9.9933011037   Be   0.0000000000      0.0000000000     -0.0038743655      0.0061337169      0.0070271928   
atom     21.0016026283      9.6295068703     10.0970125840   Be   0.0000000000      0.0000000000      0.0056501784      0.0148743579      0.0003106997   
atom     18.9472584144      6.3736318205     10.0311687190   Be   0.0000000000      0.0000000000      0.0003532698     -0.0219478981      0.0075630841   
atom     17.0271928005      2.3696532532      9.8170878913   Be   0.0000000000      0.0000000000     -0.0161591702      0.0103518885      0.0159469952   
atom     14.8814234289      6.1369165821     10.2222886375   Be   0.0000000000      0.0000000000     -0.0068478341      0.0017417024      0.0024113728   
atom     10.6853447031      5.9275827287     10.2661885058   Be   0.0000000000      0.0000000000     -0.0062716058      0.0134218022      0.0065429022   
atom     12.4705885164     10.0181832468     10.5270661431   Be   0.0000000000      0.0000000000      0.0060899643     -0.0252633252     -0.0061100508   
atom     10.4587930570     13.3144348699      9.8957183253   Be   0.0000000000      0.0000000000     -0.0017496072      0.0098409675      0.0179809819   
atom      8.5399292758      2.2198444668     10.5964571826   Be   0.0000000000      0.0000000000     -0.0016435374      0.0100148534     -0.0037984486   
atom     14.5422657446     13.3581690245     10.4273794474   Be   0.0000000000      0.0000000000      0.0092372580      0.0118960747     -0.0027363343   
atom     19.1413887262     13.3282879366     10.4987808517   Be   0.0000000000      0.0000000000     -0.0036004212      0.0067952518     -0.0098951738   
atom      8.4191110660      4.8607720574      0.8713904755   W   0.0000000000      0.0000000000      0.0042201324     -0.0026349225      0.0025866456   
atom     12.6286668485     12.1519365596      0.8713904755   W   0.0000000000      0.0000000000     -0.0002106442     -0.0020583780      0.0017131933   
atom     16.8382226404      4.8607720574      0.8713904755   W   0.0000000000      0.0000000000      0.0018710043      0.0000256682     -0.0046399351   
atom     21.0477784228     12.1519365596      0.8713904755   W   0.0000000000      0.0000000000     -0.0036025345      0.0023872890      0.0112171718   
atom     12.5953780243      2.5325597417      7.6814956718   W   0.0000000000      0.0000000000      0.0205085077     -0.0195520266      0.0209011777   
atom      8.4170195030      9.7261592760      7.7139925632   W   0.0000000000      0.0000000000     -0.0031524236     -0.0021623347     -0.0102232111   
atom      4.2292451409      2.4287943675      7.8091325499   W   0.0000000000      0.0000000000      0.0058232790      0.0082690304     -0.0165833493   
atom     16.8583224241      9.8554329351      7.8727549053   W   0.0000000000      0.0000000000     -0.0036805994     -0.0094315250     -0.0042526675   
atom      8.0593174673      9.6845892849     12.2431044051   W   0.0000000000      0.0000000000      0.0095861592      0.0070415905      0.0264012584   
atom      4.0701094510      2.8308930487     12.3095304388   W   0.0000000000      0.0000000000     -0.0000952587     -0.0124152564      0.0049579982   
atom     13.1110691510      2.3685266225     12.3647849149   W   0.0000000000      0.0000000000     -0.0072943711     -0.0085700335     -0.0057286824   
atom     16.9642738281      9.9146735008     12.5046120012   W   0.0000000000      0.0000000000     -0.0018948326     -0.0097089411     -0.0143178563   
atom      8.4772835862     12.3150247439      3.2389303107   Be   0.0000000000      0.0000000000     -0.0047516344     -0.0153225188     -0.0000302287   
atom      4.2167354340      4.8879380614      3.1110747572   Be   0.0000000000      0.0000000000      0.0040406130     -0.0033417548      0.0081630181   
atom     10.5442343344      1.2782506505      3.4540532495   Be   0.0000000000      0.0000000000     -0.0030448030     -0.0073952216     -0.0132101008   
atom     10.5855054883      8.3118909309      3.3294132371   Be   0.0000000000      0.0000000000     -0.0002622464      0.0182772707     -0.0034236430   
atom     12.6394412112      4.8343213166      3.3586386876   Be   0.0000000000      0.0000000000      0.0038871005      0.0003144829     -0.0064466231   
atom      2.1734691715      1.2470605070      3.2602718640   Be   0.0000000000      0.0000000000     -0.0052637127      0.0003578336     -0.0028741076   
atom      6.5377280655      8.5468027727      3.1536446162   Be   0.0000000000      0.0000000000     -0.0139228190      0.0028916363      0.0008515022   
atom     14.7313000600      8.4093054092      3.2390968515   Be   0.0000000000      0.0000000000     -0.0010734332      0.0095752184      0.0047362105   
atom      6.2601827962      1.2692596239      3.1448831213   Be   0.0000000000      0.0000000000      0.0035613576     -0.0017658506      0.0072950891   
atom     14.7538856785      1.1799157357      3.0622394882   Be   0.0000000000      0.0000000000     -0.0047832631      0.0090109174      0.0138536878   
atom     16.5745149291     12.1709368969      3.4822464366   Be   0.0000000000      0.0000000000      0.0233585311      0.0001532222     -0.0120793766   
atom     18.9726784051      8.4481285270      3.0958309147   Be   0.0000000000      0.0000000000     -0.0033717693      0.0130757050      0.0098342348   
atom     16.9692584506      4.9011763371      5.5914617775   W   0.0000000000      0.0000000000     -0.0191665775      0.0033505741     -0.0006269255   
atom     21.0723361293     12.1951719985      5.6869244190   W   0.0000000000      0.0000000000     -0.0084619960     -0.0019880413     -0.0241109494   
atom      8.4198918544      4.8677908240      5.6683457053   W   0.0000000000      0.0000000000     -0.0005328266     -0.0027331578     -0.0089231060   
atom     12.5349782171     12.1992656958      5.6434578464   W   0.0000000000      0.0000000000      0.0194311460     -0.0119889753     -0.0001186432   
atom     22.7511503352     12.8700787865     17.9361526022   H   0.0000000000      0.0000000000      0.0002991101      0.0002286972     -0.0181588081   
energy    -11.1844400099   
charge      0.0000000000   
end
begin
comment line
lattice     16.8382231487      0.0000000000      0.0000000000   
lattice      8.4191115649     14.5823290045      0.0000000000   
lattice      0.0000000000      0.0000000000     28.9636194330   
atom      0.0000000000      0.0000000000      0.0000000000   Be   0.0000000000      0.0000000000      0.0027594609     -0.0003622292     -0.0024526080   
atom      4.2095557824      7.2911645023      0.0000000000   Be   0.0000000000      0.0000000000      0.0054512595      0.0021958750     -0.0022810283   
atom      8.4191115743      0.0000000000      0.0000000000   Be   0.0000000000      0.0000000000      0.0028165261     -0.0020463335      0.0101554265   
atom     12.6286673568      7.2911645023      0.0000000000   Be   0.0000000000      0.0000000000     -0.0007412085     -0.0024967752      0.0053260579   
atom      8.4808473104     14.5620772118      6.6880863914   Be   0.0000000000      0.0000000000     -0.0061184853      0.0041149842     -0.0140319049   
atom      4.3179643042      7.4307658042      6.6612701347   Be   0.0000000000      0.0000000000     -0.0089608945     -0.0082184042     -0.0082567716   
atom      8.4273639875      0.0643687334      6.8204342022   Be   0.0000000000      0.0000000000     -0.0023934665     -0.0027330678      0.0012158754   
atom     12.5516474719      7.2991459942      6.7324934127   Be   0.0000000000      0.0000000000      0.0109824068      0.0037440156      0.0030388756   
atom     23.1737928510     13.3530106714      9.9482357393   Be   0.0000000000      0.0000000000      0.0028032908      0.0031279395      0.0041342061   
atom      6.4957580383      5.9736001844      9.9923884601   Be   0.0000000000      0.0000000000     -0.0053226051      0.0048038638      0.0073355237   
atom     21.0061351412      9.6268400539     10.0962247735   Be   0.0000000000      0.0000000000      0.0052163138      0.0151799732      0.0004938620   
atom     18.9440093951      6.3735832613     10.0297839684   Be   0.0000000000      0.0000000000      0.0007685209     -0.0220637295      0.0078315800   
atom     17.0281032432      2.3655594102      9.8111570109   Be   0.0000000000      0.0000000000     -0.0162338207      0.0108803049      0.0167207708   
atom     14.8821812332      6.1361243242     10.2226388076   Be   0.0000000000      0.0000000000     -0.0070167399      0.0017337206      0.0024320843   
atom     10.6871882360      5.9226094254     10.2699482733   Be   0.0000000000      0.0000000000     -0.0060543129      0.0138883251      0.0063999715   
atom     12.4685651514     10.0155046188     10.5269195872   Be   0.0000000000      0.0000000000      0.0062478473     -0.0250116399     -0.0061035026   
atom     10.4593725444     13.3137866854      9.8897648533   Be   0.0000000000      0.0000000000     -0.0015265267      0.0098424896      0.0183228497   
atom      8.5387474009      2.2157278753     10.5963256877   Be   0.0000000000      0.0000000000     -0.0017440164      0.0104421204     -0.0037501524   
atom     14.5425771675     13.3573554763     10.4236037500   Be   0.0000000000      0.0000000000      0.0089865265      0.0118337418     -0.0025975518   
atom     19.1366763810     13.3331875992     10.4935091833   Be   0.0000000000      0.0000000000     -0.0030435104      0.0062096532     -0.0099323707   
atom      8.4191110660      4.8607720574      0.8713904755   W   0.0000000000      0.0000000000      0.0041974902     -0.0026844359      0.0029780335   
atom     12.6286668485     12.1519365596      0.8713904755   W   0.0000000000      0.0000000000     -0.0004835598     -0.0019804645      0.0016660495   
atom     16.8382226404      4.8607720574      0.8713904755   W   0.0000000000      0.0000000000      0.0019196230      0.0000303753     -0.0044835548   
atom     21.0477784228     12.1519365596      0.8713904755   W   0.0000000000      0.0000000000     -0.0034919452      0.0025225457      0.0114846317   
atom     12.5938282342      2.5335087596      7.6816234014   W   0.0000000000      0.0000000000      0.0205854510     -0.0197566824      0.0204672741   
atom      8.4175207769      9.7272646166      7.7106936069   W   0.0000000000      0.0000000000     -0.0030826872     -0.0021279205     -0.0098308551   
atom      4.2300106065      2.4293234144      7.8076901617   W   0.0000000000      0.0000000000      0.0059533683      0.0087420977     -0.0155131928   
atom     16.8586753533      9.8554055203      7.8720528271   W   0.0000000000      0.0000000000     -0.0036065189     -0.0095366474     -0.0040992104   
atom      8.0603502397      9.6848924515     12.2448648139   W   0.0000000000      0.0000000000      0.0092035872      0.0083117955      0.0275443223   
atom      4.0696160910      2.8302196368     12.3111694901   W   0.0000000000      0.0000000000      0.0000388205     -0.0120332091      0.0037336282   
atom     13.1105379892      2.3684022352     12.3641752307   W   0.0000000000      0.0000000000     -0.0068668645     -0.0100402293     -0.0045431484   
atom     16.9647631469      9.9146691261     12.5026870790   W   0.0000000000      0.0000000000     -0.0016710374     -0.0095457629     -0.0141991775   
atom      8.4772503307     12.3145150915      3.2486200896   Be   0.0000000000      0.0000000000     -0.0049616288     -0.0149363624     -0.0005521696   
atom      4.2219789408      4.8894273546      3.1216716767   Be   0.0000000000      0.0000000000      0.0036086027     -0.0033634742      0.0075698565   
atom     10.5451425882      1.2655322348      3.4580369057   Be   0.0000000000      0.0000000000     -0.0034369256     -0.0061982472     -0.0133002320   
atom     10.5866706933      8.3149275551      3.3343347353   Be   0.0000000000      0.0000000000     -0.0003687832      0.0181173566     -0.0037505112   
atom     12.6342313808      4.8372738008      3.3623634091   Be   0.0000000000      0.0000000000      0.0042791835      0.0001611637     -0.0067052572   
atom      2.1690584832      1.2446446526      3.2602614371   Be   0.0000000000      0.0000000000     -0.0049380247      0.0007543457     -0.0028135675   
atom      6.5364365738      8.5528593972      3.1521561758   Be   0.0000000000      0.0000000000     -0.0136341727      0.0023956583      0.0009918675   
atom     14.7369137552      8.4143030650      3.2420143569   Be   0.0000000000      0.0000000000     -0.0016002783      0.0090963288      0.0044701426   
atom      6.2572017572      1.2670466097      3.1454542839   Be   0.0000000000      0.0000000000      0.0037841468     -0.0014782531      0.0072501930   