begin
comment Generated by ./lammpscdmp2nn.sh from states.cdmp2, TIMESTEP: 0
lattice   4.2754091658475225E+01   0.0000000000000000E+00   0.0000000000000000E+00
lattice   0.0000000000000000E+00   4.4431325466253561E+01   0.0000000000000000E+00
lattice   0.0000000000000000E+00   0.0000000000000000E+00   4.1890263426432355E+01
atom   1.9691135276389279E+01   1.4453834888379392E+01   2.9112175938850399E+01  O   0.0000000000000000E+00   0.0000000000000000E+00   0.0000000000000000E+00   0.0000000000000000E+00   0.0000000000000000E+00 
atom   1.8906332013437439E+01   1.3278066185812559E+01   2.8027851083849757E+01  H   0.0000000000000000E+00   0.0000000000000000E+00   0.0000000000000000E+00   0.0000000000000000E+00   0.0000000000000000E+00 
atom   1.8623591189447904E+01   1.5927934655531358E+01   2.9404894516821116E+01  H   0.0000000000000000E+00   0.0000000000000000E+00   0.0000000000000000E+00   0.0000000000000000E+00   0.0000000000000000E+00 
atom   3.5666691030467199E+01   2.1939531429194719E+00   7.6422036591338243E+00  O   0.0000000000000000E+00   0.0000000000000000E+00   0.0000000000000000E+00   0.0000000000000000E+00   0.0000000000000000E+00 
atom   3.7177905018867357E+01   3.1628913202513438E+00   7.9758348078796635E+00  H   0.0000000000000000E+00   0.0000000000000000E+00   0.0000000000000000E+00   0.0000000000000000E+00   0.0000000000000000E+00 
atom   3.4419093837592634E+01   3.4851463176777280E+00   7.2417139998095195E+00  H   0.0000000000000000E+00   0.0000000000000000E+00   0.0000000000000000E+00   0.0000000000000000E+00   0.0000000000000000E+00 
atom   9.5983158709790874E+00   2.5079878316681757E+01   2.1941610127940802E+01  O   0.0000000000000000E+00   0.0000000000000000E+00   0.0000000000000000E+00   0.0000000000000000E+00   0.0000000000000000E+00 
atom   1.0290239094503807E+01   2.6849417867435680E+01   2.1859973959003838E+01  H   0.0000000000000000E+00   0.0000000000000000E+00   0.0000000000000000E+00   0.0000000000000000E+00   0.0000000000000000E+00 
atom   1.0280677080271840E+01   2.4495952941646557E+01   2.3469831651536161E+01  H   0.0000000000000000E+00   0.0000000000000000E+00   0.0000000000000000E+00   0.0000000000000000E+00   0.0000000000000000E+00 
atom   1.1289942013277663E+01   5.8870449242505112E+00   2.3258749242502397E+01  O   0.0000000000000000E+00   0.0000000000000000E+00   0.0000000000000000E+00   0.0000000000000000E+00   0.0000000000000000E+00 
atom   9.8083211361171507E+00   7.0024557741357114E+00   2.3863083659771839E+01  H   0.0000000000000000E+00   0.0000000000000000E+00   0.0000000000000000E+00   0.0000000000000000E+00   0.0000000000000000E+00 
atom   1.2730045607300559E+01   6.7667880281142239E+00   2.4025600107192641E+01  H   0.0000000000000000E+00   0.0000000000000000E+00   0.0000000000000000E+00   0.0000000000000000E+00   0.0000000000000000E+00 
atom   3.1286872772476638E+01   2.1687441963079198E+01   1.9560555200612797E+00  O   0.0000000000000000E+00   0.0000000000000000E+00   0.0000000000000000E+00   0.0000000000000000E+00   0.0000000000000000E+00 
atom   3.0920076930100162E+01   2.1475981608818877E+01   3.7581172575606878E+00  H   0.0000000000000000E+00   0.0000000000000000E+00   0.0000000000000000E+00   0.0000000000000000E+00   0.0000000000000000E+00 
atom   3.0090109212574397E+01   2.2872489220958080E+01   1.2102297483245728E+00  H   0.0000000000000000E+00   0.0000000000000000E+00   0.0000000000000000E+00   0.0000000000000000E+00   0.0000000000000000E+00 
atom   7.9805024314276789E+00   2.1738653541278079E+01   4.0169152514476473E+01  O   0.0000000000000000E+00   0.0000000000000000E+00   0.0000000000000000E+00   0.0000000000000000E+00   0.0000000000000000E+00 
atom   7.0445210778518392E+00   2.0235376402635680E+01   3.9769475437389282E+01  H   0.0000000000000000E+00   0.0000000000000000E+00   0.0000000000000000E+00   0.0000000000000000E+00   0.0000000000000000E+00 
atom   9.2300649394803518E+00   2.1141500083313279E+01   4.1368939636191200E+01  H   0.0000000000000000E+00   0.0000000000000000E+00   0.0000000000000000E+00   0.0000000000000000E+00   0.0000000000000000E+00 
atom   3.0598634514910877E+01   3.5902528851840636E+01   9.8038991769663983E+00  O   0.0000000000000000E+00   0.0000000000000000E+00   0.0000000000000000E+00   0.0000000000000000E+00   0.0000000000000000E+00 
atom   3.1790106841641283E+01   3.6772180818155199E+01   8.6234628508515527E+00  H   0.0000000000000000E+00   0.0000000000000000E+00   0.0000000000000000E+00   0.0000000000000000E+00   0.0000000000000000E+00 
atom   2.9172080257260159E+01   3.7007451721688803E+01   1.0203406178701647E+01  H   0.0000000000000000E+00   0.0000000000000000E+00   0.0000000000000000E+00   0.0000000000000000E+00   0.0000000000000000E+00 
atom   1.6049330662302431E+01   2.4198510048343842E+01   3.4709922689430556E+01  O   0.0000000000000000E+00   0.0000000000000000E+00   0.0000000000000000E+00   0.0000000000000000E+00   0.0000000000000000E+00 
atom   1.4467837759023439E+01   2.3789951258432477E+01   3.5686533154861600E+01  H   0.0000000000000000E+00   0.0000000000000000E+00   0.0000000000000000E+00   0.0000000000000000E+00   0.0000000000000000E+00 
atom   1.5472624041094528E+01   2.5450075666097277E+01   3.3372941450474556E+01  H   0.0000000000000000E+00   0.0000000000000000E+00   0.0000000000000000E+00   0.0000000000000000E+00   0.0000000000000000E+00 
atom   9.0112346533021110E+00   5.4810939564024155E+00   3.1356414694163679E+01  O   0.0000000000000000E+00   0.0000000000000000E+00   0.0000000000000000E+00   0.0000000000000000E+00   0.0000000000000000E+00 
atom   8.5236664137783844E+00   3.8114264317669755E+00   3.1848121433918241E+01  H   0.0000000000000000E+00   0.0000000000000000E+00   0.0000000000000000E+00   0.0000000000000000E+00   0.0000000000000000E+00 
atom   8.9425998001588152E+00   6.3853657054698711E+00   3.2984791702797438E+01  H   0.0000000000000000E+00   0.0000000000000000E+00   0.0000000000000000E+00   0.0000000000000000E+00   0.0000000000000000E+00 
atom   2.3543719943328640E+00   8.3822771045222879E+00   4.1380089020374719E+01  O   0.0000000000000000E+00   0.0000000000000000E+00   0.0000000000000000E+00   0.0000000000000000E+00   0.0000000000000000E+00 
atom   2.5523586012663197E+00   6.8792267330158241E+00   4.0373431909432156E+01  H   0.0000000000000000E+00   0.0000000000000000E+00   0.0000000000000000E+00   0.0000000000000000E+00   0.0000000000000000E+00 
atom   4.0316740125448156E+00   9.1084799600960000E+00   4.1357979224620955E+01  H   0.0000000000000000E+00   0.0000000000000000E+00   0.0000000000000000E+00   0.0000000000000000E+00   0.0000000000000000E+00 
atom   3.1316730445374876E+01   3.9502835080051199E+01   2.5372596894652477E+00  O   0.0000000000000000E+00   0.0000000000000000E+00   0.0000000000000000E+00   0.0000000000000000E+00   0.0000000000000000E+00 
atom   2.9588008979089437E+01   3.9202179652322720E+01   3.1108482625540321E+00  H   0.0000000000000000E+00   0.0000000000000000E+00   0.0000000000000000E+00   0.0000000000000000E+00   0.0000000000000000E+00 
atom   3.1819208624086400E+01   3.7760129640383035E+01   1.9290324363622398E+00  H   0.0000000000000000E+00   0.0000000000000000E+00   0.0000000000000000E+00   0.0000000000000000E+00   0.0000000000000000E+00 
atom   9.8987634288329591E+00   3.6863454590369443E+01   1.8048642013543503E+01  O   0.0000000000000000E+00   0.0000000000000000E+00   0.0000000000000000E+00   0.0000000000000000E+00   0.0000000000000000E+00 
atom   1.0241087317789679E+01   3.8685528527615197E+01   1.7521162758095041E+01  H   0.0000000000000000E+00   0.0000000000000000E+00   0.0000000000000000E+00   0.0000000000000000E+00   0.0000000000000000E+00 
atom   1.0772024772061167E+01   3.5675383770678074E+01   1.6881755023800828E+01  H   0.0000000000000000E+00   0.0000000000000000E+00   0.0000000000000000E+00   0.0000000000000000E+00   0.0000000000000000E+00 
atom   1.1205603535970800E+01   3.0117321268886720E+01   2.1276237556581918E+01  O   0.0000000000000000E+00   0.0000000000000000E+00   0.0000000000000000E+00   0.0000000000000000E+00   0.0000000000000000E+00 
atom   9.8865935925377286E+00   3.0937651383135201E+01   2.0288477706967360E+01  H   0.0000000000000000E+00   0.0000000000000000E+00   0.0000000000000000E+00   0.0000000000000000E+00   0.0000000000000000E+00 
atom   1.2843372483484575E+01   3.0006394344891358E+01   2.0346681271857598E+01  H   0.0000000000000000E+00   0.0000000000000000E+00   0.0000000000000000E+00   0.0000000000000000E+00   0.0000000000000000E+00 
atom   2.9974835918473598E+01   1.0612645270020815E+01   1.8113346236330575E+01  O   0.0000000000000000E+00   0.0000000000000000E+00   0.0000000000000000E+00   0.0000000000000000E+00   0.0000000000000000E+00 
atom   3.0277759017561440E+01   9.7045562741651050E+00   1.9648427465788000E+01  H   0.0000000000000000E+00   0.0000000000000000E+00   0.0000000000000000E+00   0.0000000000000000E+00   0.0000000000000000E+00 
atom   2.8498203918303680E+01   1.1659326780456080E+01   1.8282023190944301E+01  H   0.0000000000000000E+00   0.0000000000000000E+00   0.0000000000000000E+00   0.0000000000000000E+00   0.0000000000000000E+00 
atom  -1.2777723397631105E-01   2.2497945501437119E+01   2.7159332953214879E+01  O   0.0000000000000000E+00   0.0000000000000000E+00   0.0000000000000000E+00   0.0000000000000000E+00   0.0000000000000000E+00 
atom   9.6496408327459360E-01   2.2519677351964319E+01   2.5633568073592158E+01  H   0.0000000000000000E+00   0.0000000000000000E+00   0.0000000000000000E+00   0.0000000000000000E+00   0.0000000000000000E+00 
atom   6.4718584705681281E-01   2.0998258842447040E+01   2.7878751691971839E+01  H   0.0000000000000000E+00   0.0000000000000000E+00   0.0000000000000000E+00   0.0000000000000000E+00   0.0000000000000000E+00 
atom   7.2167318203339033E+00   1.8056144226290719E+01   3.5587889450729435E+01  O   0.0000000000000000E+00   0.0000000000000000E+00   0.0000000000000000E+00   0.0000000000000000E+00   0.0000000000000000E+00 
atom   5.8094338719764158E+00   1.9250262169607037E+01   3.5465435197323998E+01  H   0.0000000000000000E+00   0.0000000000000000E+00   0.0000000000000000E+00   0.0000000000000000E+00   0.0000000000000000E+00 
atom   8.6240297686913916E+00   1.9359866285309437E+01   3.5474316910148161E+01  H   0.0000000000000000E+00   0.0000000000000000E+00   0.0000000000000000E+00   0.0000000000000000E+00   0.0000000000000000E+00 
atom   2.5554577521241118E+01   1.0988436208789423E+00   2.1443478319334719E+01  O   0.0000000000000000E+00   0.0000000000000000E+00   0.0000000000000000E+00   0.0000000000000000E+00   0.0000000000000000E+00 
atom   2.5362014428308797E+01   2.0631840945297122E+00   2.3021399640222718E+01  H   0.0000000000000000E+00   0.0000000000000000E+00   0.0000000000000000E+00   0.0000000000000000E+00   0.0000000000000000E+00 
atom   2.4315862041190719E+01   4.4198048629606077E+01   2.1677426414575358E+01  H   0.0000000000000000E+00   0.0000000000000000E+00   0.0000000000000000E+00   0.0000000000000000E+00   0.0000000000000000E+00 
atom   4.7465385113217282E+00   6.8920957679801917E+00   2.8202272805907196E+01  O   0.0000000000000000E+00   0.0000000000000000E+00   0.0000000000000000E+00   0.0000000000000000E+00   0.0000000000000000E+00 
atom   5.8446961616144639E+00   6.2523478829820798E+00   2.9612386446202557E+01  H   0.0000000000000000E+00   0.0000000000000000E+00   0.0000000000000000E+00   0.0000000000000000E+00   0.0000000000000000E+00 
atom   3.0340875870396959E+00   6.4006724871455516E+00   2.8474393369030398E+01  H   0.0000000000000000E+00   0.0000000000000000E+00   0.0000000000000000E+00   0.0000000000000000E+00   0.0000000000000000E+00 
atom   8.3209365942515987E+00   2.9848413240189277E+01   9.9396193078240955E+00  O   0.0000000000000000E+00   0.0000000000000000E+00   0.0000000000000000E+00   0.0000000000000000E+00   0.0000000000000000E+00 
atom   7.3074764692309602E+00   2.9305872867462398E+01   8.4121914692045117E+00  H   0.0000000000000000E+00   0.0000000000000000E+00   0.0000000000000000E+00   0.0000000000000000E+00   0.0000000000000000E+00 
atom   7.1055592319412799E+00   3.0921966656232957E+01   1.0974849077894591E+01  H   0.0000000000000000E+00   0.0000000000000000E+00   0.0000000000000000E+00   0.0000000000000000E+00   0.0000000000000000E+00 
atom   1.5179036189102721E+01   4.1393695048530873E+01   2.2950912855469277E+01  O   0.0000000000000000E+00   0.0000000000000000E+00   0.0000000000000000E+00   0.0000000000000000E+00   0.0000000000000000E+00 
atom   1.6632915886633725E+01   4.0651599596180318E+01   2.3754991324975681E+01  H   0.0000000000000000E+00   0.0000000000000000E+00   0.0000000000000000E+00   0.0000000000000000E+00   0.0000000000000000E+00 
atom   1.4366170493078799E+01   4.2680787517580953E+01   2.4026355997645759E+01  H   0.0000000000000000E+00   0.0000000000000000E+00   0.0000000000000000E+00   0.0000000000000000E+00   0.0000000000000000E+00 
atom   7.6129506985980795E+00   2.4873709195593278E+01   1.1833105995628367E+01  O   0.0000000000000000E+00   0.0000000000000000E+00   0.0000000000000000E+00   0.0000000000000000E+00   0.0000000000000000E+00 
atom   5.7231678740140959E+00   2.4791317136203197E+01   1.1478309914195167E+01  H   0.0000000000000000E+00   0.0000000000000000E+00   0.0000000000000000E+00   0.0000000000000000E+00   0.0000000000000000E+00 
atom   8.2489380285919189E+00   2.6409489623719839E+01   1.1247517661596303E+01  H   0.0000000000000000E+00   0.0000000000000000E+00   0.0000000000000000E+00   0.0000000000000000E+00   0.0000000000000000E+00 
atom   2.0584030874137280E+01   1.8274615464503729E+01   2.2912173469746882E+00  O   0.0000000000000000E+00   0.0000000000000000E+00   0.0000000000000000E+00   0.0000000000000000E+00   0.0000000000000000E+00 
atom   1.8929764617484160E+01   1.8062701575971534E+01   3.1792374513000636E+00  H   0.0000000000000000E+00   0.0000000000000000E+00   0.0000000000000000E+00   0.0000000000000000E+00   0.0000000000000000E+00 
atom   2.0914355002150717E+01   2.0067946667269599E+01   2.0912843221244479E+00  H   0.0000000000000000E+00   0.0000000000000000E+00   0.0000000000000000E+00   0.0000000000000000E+00   0.0000000000000000E+00 
atom   2.7463956805822239E+01   2.9219890328420000E+01   2.0378239698275358E+01  O   0.0000000000000000E+00   0.0000000000000000E+00   0.0000000000000000E+00   0.0000000000000000E+00   0.0000000000000000E+00 
atom   2.8330585210324319E+01   2.7731919971453280E+01   2.0918701372256159E+01  H   0.0000000000000000E+00   0.0000000000000000E+00   0.0000000000000000E+00   0.0000000000000000E+00   0.0000000000000000E+00 
atom   2.8158620132239520E+01   2.9681739395276317E+01   1.8693152008396272E+01  H   0.0000000000000000E+00   0.0000000000000000E+00   0.0000000000000000E+00   0.0000000000000000E+00   0.0000000000000000E+00 
atom   1.1469031358883118E+01   1.8355816996430143E+01   2.2193699594056318E+00  O   0.0000000000000000E+00   0.0000000000000000E+00   0.0000000000000000E+00   0.0000000000000000E+00   0.0000000000000000E+00 
atom   9.8515769672969444E+00   1.8055029287872365E+01   3.3484813237536319E+00  H   0.0000000000000000E+00   0.0000000000000000E+00   0.0000000000000000E+00   0.0000000000000000E+00   0.0000000000000000E+00 
atom   1.0990344832183551E+01   1.7454852268095088E+01   6.7385933142128474E-01  H   0.0000000000000000E+00   0.0000000000000000E+00   0.0000000000000000E+00   0.0000000000000000E+00   0.0000000000000000E+00 
atom   3.9068764987347038E+01   1.3127417218505743E+01   1.8727885174717137E+01  O   0.0000000000000000E+00   0.0000000000000000E+00   0.0000000000000000E+00   0.0000000000000000E+00   0.0000000000000000E+00 
atom   4.0339416839041753E+01   1.1893709512707263E+01   1.8144488922999116E+01  H   0.0000000000000000E+00   0.0000000000000000E+00   0.0000000000000000E+00   0.0000000000000000E+00   0.0000000000000000E+00 
atom   3.7607061823626239E+01   1.2660843836317424E+01   1.7801919369645134E+01  H   0.0000000000000000E+00   0.0000000000000000E+00   0.0000000000000000E+00   0.0000000000000000E+00   0.0000000000000000E+00 
atom   3.2421842287836320E+01   7.0054037469028794E+00   2.1833706765757920E+01  O   0.0000000000000000E+00   0.0000000000000000E+00   0.0000000000000000E+00   0.0000000000000000E+00   0.0000000000000000E+00 
atom   3.2383102902113912E+01   5.7420651353420959E+00   2.0546803269321117E+01  H   0.0000000000000000E+00   0.0000000000000000E+00   0.0000000000000000E+00   0.0000000000000000E+00   0.0000000000000000E+00 
atom   3.4197428962215199E+01   7.4185545713169443E+00   2.1958806635749280E+01  H   0.0000000000000000E+00   0.0000000000000000E+00   0.0000000000000000E+00   0.0000000000000000E+00   0.0000000000000000E+00 
atom   8.0627622099884633E+00   3.3417916932435197E+01   3.5052719009920480E+01  O   0.0000000000000000E+00   0.0000000000000000E+00   0.0000000000000000E+00   0.0000000000000000E+00   0.0000000000000000E+00 
atom   9.6542517645099668E+00   3.4464636237393115E+01   3.5146827371333920E+01  H   0.0000000000000000E+00   0.0000000000000000E+00   0.0000000000000000E+00   0.0000000000000000E+00   0.0000000000000000E+00 
atom   7.3708011919410872E+00   3.3444940016134240E+01   3.6803928217186240E+01  H   0.0000000000000000E+00   0.0000000000000000E+00   0.0000000000000000E+00   0.0000000000000000E+00   0.0000000000000000E+00 
atom   2.3968341405368800E+00   2.4152778675930080E+01   1.1066028363802191E+01  O   0.0000000000000000E+00   0.0000000000000000E+00   0.0000000000000000E+00   0.0000000000000000E+00   0.0000000000000000E+00 
atom   1.6057361998366830E+00   2.5905310691488801E+01   1.0932764876917137E+01  H   0.0000000000000000E+00   0.0000000000000000E+00   0.0000000000000000E+00   0.0000000000000000E+00   0.0000000000000000E+00 
atom   8.1323797207208148E-01   2.3160483483596799E+01   1.0880117106857327E+01  H   0.0000000000000000E+00   0.0000000000000000E+00   0.0000000000000000E+00   0.0000000000000000E+00   0.0000000000000000E+00 
atom   3.9636816662866721E+01   5.1290757723844314E+00   9.0478197512331189E+00  O   0.0000000000000000E+00   0.0000000000000000E+00   0.0000000000000000E+00   0.0000000000000000E+00   0.0000000000000000E+00 
atom   4.0973608929209441E+01   4.0651032678340480E+00   9.7466971669265430E+00  H   0.0000000000000000E+00   0.0000000000000000E+00   0.0000000000000000E+00   0.0000000000000000E+00   0.0000000000000000E+00 
atom   3.9339184796950718E+01   6.3921498222866235E+00   1.0324367548462176E+01  H   0.0000000000000000E+00   0.0000000000000000E+00   0.0000000000000000E+00   0.0000000000000000E+00   0.0000000000000000E+00 
atom   1.0616821564774304E+01   2.2487363035093441E+01   3.5548583147167193E+01  O   0.0000000000000000E+00   0.0000000000000000E+00   0.0000000000000000E+00   0.0000000000000000E+00   0.0000000000000000E+00 
atom   9.6937848352081435E+00   2.3336416986560479E+01   3.4209145264238558E+01  H   0.0000000000000000E+00   0.0000000000000000E+00   0.0000000000000000E+00   0.0000000000000000E+00   0.0000000000000000E+00 
atom   9.7990047862824472E+00   2.2906126346121919E+01   3.7192266937476639E+01  H   0.0000000000000000E+00   0.0000000000000000E+00   0.0000000000000000E+00   0.0000000000000000E+00   0.0000000000000000E+00 
atom   3.7563220177345279E+01   8.5105706116780784E+00   2.2283650557977598E+01  O   0.0000000000000000E+00   0.0000000000000000E+00   0.0000000000000000E+00   0.0000000000000000E+00   0.0000000000000000E+00 
atom   3.7025971037790235E+01   8.6489174618603677E+00   2.4028056751165277E+01  H   0.0000000000000000E+00   0.0000000000000000E+00   0.0000000000000000E+00   0.0000000000000000E+00   0.0000000000000000E+00 
atom   3.8376180359675836E+01   1.0159318868023423E+01   2.1846556903460961E+01  H   0.0000000000000000E+00   0.0000000000000000E+00   0.0000000000000000E+00   0.0000000000000000E+00   0.0000000000000000E+00 
atom   8.7052879924017912E+00   4.4134931776770557E+01   1.2162334082484783E+01  O   0.0000000000000000E+00   0.0000000000000000E+00   0.0000000000000000E+00   0.0000000000000000E+00   0.0000000000000000E+00 
atom   9.3352281987706718E+00   4.3541935716297914E+01   1.3842602970725231E+01  H   0.0000000000000000E+00   0.0000000000000000E+00   0.0000000000000000E+00   0.0000000000000000E+00   0.0000000000000000E+00 
atom   1.0098035049536719E+01   7.3026765648536474E-01   1.1448962467352784E+01  H   0.0000000000000000E+00   0.0000000000000000E+00   0.0000000000000000E+00   0.0000000000000000E+00   0.0000000000000000E+00 
atom   2.1775314228254398E+01   4.2819304443115193E+01   3.4552508502568323E+01  O   0.0000000000000000E+00   0.0000000000000000E+00   0.0000000000000000E+00   0.0000000000000000E+00   0.0000000000000000E+00 
atom   2.1497713459346077E+01   2.3821320712236960E-01   3.4751118719125600E+01  H   0.0000000000000000E+00   0.0000000000000000E+00   0.0000000000000000E+00   0.0000000000000000E+00   0.0000000000000000E+00 
atom   2.0121992834667680E+01   4.2015037000995520E+01   3.4503186650502236E+01  H   0.0000000000000000E+00   0.0000000000000000E+00   0.0000000000000000E+00   0.0000000000000000E+00   0.0000000000000000E+00 
atom   7.0334661799749600E+00   1.2042412062097295E+01   1.0778789991616591E+01  O   0.0000000000000000E+00   0.0000000000000000E+00   0.0000000000000000E+00   0.0000000000000000E+00   0.0000000000000000E+00 
atom   6.8964043435629758E+00   1.0958427357800559E+01   9.2912920661830718E+00  H   0.0000000000000000E+00   0.0000000000000000E+00   0.0000000000000000E+00   0.0000000000000000E+00   0.0000000000000000E+00 
atom   5.7542538688986555E+00   1.3428658461335392E+01   1.0412636656125263E+01  H   0.0000000000000000E+00   0.0000000000000000E+00   0.0000000000000000E+00   0.0000000000000000E+00   0.0000000000000000E+00 
atom   2.5924585898043357E+01   3.8325346726703522E+00   3.1494364701858078E+01  O   0.0000000000000000E+00   0.0000000000000000E+00   0.0000000000000000E+00   0.0000000000000000E+00   0.0000000000000000E+00 
atom   2.4693996240364001E+01   3.9375089593473915E+00   3.3041294514168158E+01  H   0.0000000000000000E+00   0.0000000000000000E+00   0.0000000000000000E+00   0.0000000000000000E+00   0.0000000000000000E+00 
atom   2.4976510297217601E+01   3.3596685024598076E+00   3.0008473043637437E+01  H   0.0000000000000000E+00   0.0000000000000000E+00   0.0000000000000000E+00   0.0000000000000000E+00   0.0000000000000000E+00 
atom   3.5443703346796798E+00   4.0290472932202235E+01   3.9549511315531355E+01  O   0.0000000000000000E+00   0.0000000000000000E+00   0.0000000000000000E+00   0.0000000000000000E+00   0.0000000000000000E+00 
atom   2.9142222584361921E+00   4.0406880061982719E+01   4.1248375108918559E+01  H   0.0000000000000000E+00   0.0000000000000000E+00   0.0000000000000000E+00   0.0000000000000000E+00   0.0000000000000000E+00 
atom   4.8602622299936318E+00   4.1504244027299677E+01   3.9344853975349118E+01  H   0.0000000000000000E+00   0.0000000000000000E+00   0.0000000000000000E+00   0.0000000000000000E+00   0.0000000000000000E+00 
atom   1.6010402303966753E+01   4.1472496628268637E+01   1.6934157129463372E+01  O   0.0000000000000000E+00   0.0000000000000000E+00   0.0000000000000000E+00   0.0000000000000000E+00   0.0000000000000000E+00 
atom   1.6619461036568190E+01   4.3074228498429918E+01   1.7503191462572111E+01  H   0.0000000000000000E+00   0.0000000000000000E+00   0.0000000000000000E+00   0.0000000000000000E+00   0.0000000000000000E+00 
atom   1.6808528136154834E+01   4.0299543617639678E+01   1.8129219935846095E+01  H   0.0000000000000000E+00   0.0000000000000000E+00   0.0000000000000000E+00   0.0000000000000000E+00   0.0000000000000000E+00 
atom   3.6571302930238552E+01   1.1608549839267743E+01   8.9034068801645438E-01  O   0.0000000000000000E+00   0.0000000000000000E+00   0.0000000000000000E+00   0.0000000000000000E+00   0.0000000000000000E+00 
atom   3.4791558858367523E+01   1.1987345442587502E+01   1.3954777113968240E+00  H   0.0000000000000000E+00   0.0000000000000000E+00   0.0000000000000000E+00   0.0000000000000000E+00   0.0000000000000000E+00 
atom   3.6402928331806081E+01   1.2331729133028976E+01   4.1170140447020643E+01  H   0.0000000000000000E+00   0.0000000000000000E+00   0.0000000000000000E+00   0.0000000000000000E+00   0.0000000000000000E+00 
atom   2.5477665667636160E+01   4.6380493340376798E+00   7.9088062219492468E+00  O   0.0000000000000000E+00   0.0000000000000000E+00   0.0000000000000000E+00   0.0000000000000000E+00   0.0000000000000000E+00 
atom   2.4245753201663838E+01   5.1383543276964803E+00   9.1052296311475835E+00  H   0.0000000000000000E+00   0.0000000000000000E+00   0.0000000000000000E+00   0.0000000000000000E+00   0.0000000000000000E+00 
atom   2.5928743295535519E+01   6.1941632153531678E+00   7.0993420329643682E+00  H   0.0000000000000000E+00   0.0000000000000000E+00   0.0000000000000000E+00   0.0000000000000000E+00   0.0000000000000000E+00 
atom   2.5937813980972958E+01   2.8260287398184161E+01   9.5004847490840323E+00  O   0.0000000000000000E+00   0.0000000000000000E+00   0.0000000000000000E+00   0.0000000000000000E+00   0.0000000000000000E+00 
atom   2.5951797954355680E+01   2.9840098445204958E+01   8.5043912072238239E+00  H   0.0000000000000000E+00   0.0000000000000000E+00   0.0000000000000000E+00   0.0000000000000000E+00   0.0000000000000000E+00 
atom   2.7621748937911036E+01   2.7539545851134239E+01   9.1578774012073918E+00  H   0.0000000000000000E+00   0.0000000000000000E+00   0.0000000000000000E+00   0.0000000000000000E+00   0.0000000000000000E+00 
atom   1.6519475626881743E+01   8.8241328688935834E+00   2.0140134205542559E+01  O   0.0000000000000000E+00   0.0000000000000000E+00   0.0000000000000000E+00   0.0000000000000000E+00   0.0000000000000000E+00 
atom   1.7829112528696129E+01   8.1611602497233591E+00   1.8954331057210560E+01  H   0.0000000000000000E+00   0.0000000000000000E+00   0.0000000000000000E+00   0.0000000000000000E+00   0.0000000000000000E+00 
atom   1.5099875561399726E+01   7.9703734993558717E+00   1.9363267792348481E+01  H   0.0000000000000000E+00   0.0000000000000000E+00   0.0000000000000000E+00   0.0000000000000000E+00   0.0000000000000000E+00 
atom   1.1644322354961647E+01   2.8813410237254718E+01   3.5585054861530239E+01  O   0.0000000000000000E+00   0.0000000000000000E+00   0.0000000000000000E+00   0.0000000000000000E+00   0.0000000000000000E+00 
atom   1.1615806387617695E+01   3.0552147252043998E+01   3.5425561975921923E+01  H   0.0000000000000000E+00   0.0000000000000000E+00   0.0000000000000000E+00   0.0000000000000000E+00   0.0000000000000000E+00 
atom   9.9519592194712789E+00   2.8381985761136477E+01   3.6150271947850719E+01  H   0.0000000000000000E+00   0.0000000000000000E+00   0.0000000000000000E+00   0.0000000000000000E+00   0.0000000000000000E+00 
atom   6.6341103563303350E-01   2.9453838423660638E+01   1.0180483800710784E+01  O   0.0000000000000000E+00   0.0000000000000000E+00   0.0000000000000000E+00   0.0000000000000000E+00   0.0000000000000000E+00 
atom   2.1034163638970242E+00   3.0424401765466722E+01   1.0841906844452112E+01  H   0.0000000000000000E+00   0.0000000000000000E+00   0.0000000000000000E+00   0.0000000000000000E+00   0.0000000000000000E+00 
atom   5.0948150375967682E-01   2.9991465508442236E+01   8.3704474189309597E+00  H   0.0000000000000000E+00   0.0000000000000000E+00   0.0000000000000000E+00   0.0000000000000000E+00   0.0000000000000000E+00 
atom   1.1651068677255743E+00   1.8323578268604575E+01   2.0886387055385278E+01  O   0.0000000000000000E+00   0.0000000000000000E+00   0.0000000000000000E+00   0.0000000000000000E+00   0.0000000000000000E+00 
atom   1.8488778127133951E+00   2.0091190298703040E+01   2.0844057190010560E+01  H   0.0000000000000000E+00   0.0000000000000000E+00   0.0000000000000000E+00   0.0000000000000000E+00   0.0000000000000000E+00 
atom   4.2546994907378718E+01   1.8641638074016143E+01   2.2074268902463359E+01  H   0.0000000000000000E+00   0.0000000000000000E+00   0.0000000000000000E+00   0.0000000000000000E+00   0.0000000000000000E+00 
atom   4.0138161005898560E+01   8.4443546079847671E+00   3.2535414828417593E+01  O   0.0000000000000000E+00   0.0000000000000000E+00   0.0000000000000000E+00   0.0000000000000000E+00   0.0000000000000000E+00 
atom   3.8780770724708319E+01   7.4423462233288955E+00   3.3204755824655358E+01  H   0.0000000000000000E+00   0.0000000000000000E+00   0.0000000000000000E+00   0.0000000000000000E+00   0.0000000000000000E+00 
atom   4.0931845981674556E+01   7.1807892292880480E+00   3.1349800652698878E+01  H   0.0000000000000000E+00   0.0000000000000000E+00   0.0000000000000000E+00   0.0000000000000000E+00   0.0000000000000000E+00 
atom   3.3959134496869119E+01   4.1099086744427360E-01   4.1457756764432801E+01  O   0.0000000000000000E+00   0.0000000000000000E+00   0.0000000000000000E+00   0.0000000000000000E+00   0.0000000000000000E+00 
atom   3.4802897215164315E+01   4.3541935716297914E+01   4.0522909246536635E+01  H   0.0000000000000000E+00   0.0000000000000000E+00   0.0000000000000000E+00   0.0000000000000000E+00   0.0000000000000000E+00 
atom   3.2319986049278398E+01  -1.4338826155937182E-01   1.2225847777808192E-01  H   0.0000000000000000E+00   0.0000000000000000E+00   0.0000000000000000E+00   0.0000000000000000E+00   0.0000000000000000E+00 
atom   4.0963782353318878E+00   4.1188092845282235E+01   9.7298408098219671E+00  O   0.0000000000000000E+00   0.0000000000000000E+00   0.0000000000000000E+00   0.0000000000000000E+00   0.0000000000000000E+00 
atom   5.2246770174427839E+00   4.2425485517039682E+01   1.0421971903221294E+01  H   0.0000000000000000E+00   0.0000000000000000E+00   0.0000000000000000E+00   0.0000000000000000E+00   0.0000000000000000E+00 
atom   2.5875453018590560E+00   4.2221395094697279E+01   9.3065232588134403E+00  H   0.0000000000000000E+00   0.0000000000000000E+00   0.0000000000000000E+00   0.0000000000000000E+00   0.0000000000000000E+00 