begin
atom   0.00000000E+00   0.00000000E+00   0.00000000E+00 Ne   0.00000000E+00   0.00000000E+00  -1.38564065E+01  -1.38564065E+01  -1.38564065E+01
atom   5.77350269E-01   5.77350269E-01   5.77350269E-01 Ne   0.00000000E+00   0.00000000E+00   1.38564065E+01   1.38564065E+01   1.38564065E+01
energy   0.00000000E+00
comment r =   1.00000000E+00, E =   0.00000000E+00, dEdr =  -2.40000000E+01
end
begin
atom   0.00000000E+00   0.00000000E+00   0.00000000E+00 Ne   0.00000000E+00   0.00000000E+00  -1.14260918E+01  -1.14260918E+01  -1.14260918E+01
atom   5.83123772E-01   5.83123772E-01   5.83123772E-01 Ne   0.00000000E+00   0.00000000E+00   1.14260918E+01   1.14260918E+01   1.14260918E+01
energy  -2.18384040E-01
comment r =   1.01000000E+00, E =  -2.18384040E-01, dEdr =  -1.97905715E+01
end
begin
atom   0.00000000E+00   0.00000000E+00   0.00000000E+00 Ne   0.00000000E+00   0.00000000E+00  -9.36007007E+00  -9.36007007E+00  -9.36007007E+00
atom   5.88897275E-01   5.88897275E-01   5.88897275E-01 Ne   0.00000000E+00   0.00000000E+00   9.36007007E+00   9.36007007E+00   9.36007007E+00
energy  -3.97912826E-01
comment r =   1.02000000E+00, E =  -3.97912826E-01, dEdr =  -1.62121169E+01
end
begin
atom   0.00000000E+00   0.00000000E+00   0.00000000E+00 Ne   0.00000000E+00   0.00000000E+00  -7.60455062E+00  -7.60455062E+00  -7.60455062E+00
atom   5.94670777E-01   5.94670777E-01   5.94670777E-01 Ne   0.00000000E+00   0.00000000E+00   7.60455062E+00   7.60455062E+00   7.60455062E+00
energy  -5.44417506E-01
comment r =   1.03000000E+00, E =  -5.44417506E-01, dEdr =  -1.31714680E+01
end
begin
atom   0.00000000E+00   0.00000000E+00   0.00000000E+00 Ne   0.00000000E+00   0.00000000E+00  -6.11386720E+00  -6.11386720E+00  -6.11386720E+00
atom   6.00444280E-01   6.00444280E-01   6.00444280E-01 Ne   0.00000000E+00   0.00000000E+00   6.11386720E+00   6.11386720E+00   6.11386720E+00
energy  -6.62869905E-01
comment r =   1.04000000E+00, E =  -6.62869905E-01, dEdr =  -1.05895286E+01
end
begin
atom   0.00000000E+00   0.00000000E+00   0.00000000E+00 Ne   0.00000000E+00   0.00000000E+00  -4.84920700E+00  -4.84920700E+00  -4.84920700E+00
atom   6.06217783E-01   6.06217783E-01   6.06217783E-01 Ne   0.00000000E+00   0.00000000E+00   4.84920700E+00   4.84920700E+00   4.84920700E+00
energy  -7.57511914E-01
comment r =   1.05000000E+00, E =  -7.57511914E-01, dEdr =  -8.39907291E+00
end
begin
atom   0.00000000E+00   0.00000000E+00   0.00000000E+00 Ne   0.00000000E+00   0.00000000E+00  -3.77754643E+00  -3.77754643E+00  -3.77754643E+00
atom   6.11991285E-01   6.11991285E-01   6.11991285E-01 Ne   0.00000000E+00   0.00000000E+00   3.77754643E+00   3.77754643E+00   3.77754643E+00
energy  -8.31964707E-01
comment r =   1.06000000E+00, E =  -8.31964707E-01, dEdr =  -6.54290234E+00
end
begin
atom   0.00000000E+00   0.00000000E+00   0.00000000E+00 Ne   0.00000000E+00   0.00000000E+00  -2.87075857E+00  -2.87075857E+00  -2.87075857E+00
atom   6.17764788E-01   6.17764788E-01   6.17764788E-01 Ne   0.00000000E+00   0.00000000E+00   2.87075857E+00   2.87075857E+00   2.87075857E+00
energy  -8.89321058E-01
comment r =   1.07000000E+00, E =  -8.89321058E-01, dEdr =  -4.97229969E+00
end
begin
atom   0.00000000E+00   0.00000000E+00   0.00000000E+00 Ne   0.00000000E+00   0.00000000E+00  -2.10486372E+00  -2.10486372E+00  -2.10486372E+00
atom   6.23538291E-01   6.23538291E-01   6.23538291E-01 Ne   0.00000000E+00   0.00000000E+00   2.10486372E+00   2.10486372E+00   2.10486372E+00
energy  -9.32223473E-01
comment r =   1.08000000E+00, E =  -9.32223473E-01, dEdr =  -3.64573090E+00
end
begin
atom   0.00000000E+00   0.00000000E+00   0.00000000E+00 Ne   0.00000000E+00   0.00000000E+00  -1.45939898E+00  -1.45939898E+00  -1.45939898E+00
atom   6.29311793E-01   6.29311793E-01   6.29311793E-01 Ne   0.00000000E+00   0.00000000E+00   1.45939898E+00   1.45939898E+00   1.45939898E+00
energy  -9.62930407E-01
comment r =   1.09000000E+00, E =  -9.62930407E-01, dEdr =  -2.52775317E+00
end
begin
atom   0.00000000E+00   0.00000000E+00   0.00000000E+00 Ne   0.00000000E+00   0.00000000E+00  -9.16887301E-01  -9.16887301E-01  -9.16887301E-01
atom   6.35085296E-01   6.35085296E-01   6.35085296E-01 Ne   0.00000000E+00   0.00000000E+00   9.16887301E-01   9.16887301E-01   9.16887301E-01
energy  -9.83372449E-01
comment r =   1.10000000E+00, E =  -9.83372449E-01, dEdr =  -1.58809539E+00
end
begin
atom   0.00000000E+00   0.00000000E+00   0.00000000E+00 Ne   0.00000000E+00   0.00000000E+00  -4.62389671E-01  -4.62389671E-01  -4.62389671E-01
atom   6.40858799E-01   6.40858799E-01   6.40858799E-01 Ne   0.00000000E+00   0.00000000E+00   4.62389671E-01   4.62389671E-01   4.62389671E-01
energy  -9.95200050E-01
comment r =   1.11000000E+00, E =  -9.95200050E-01, dEdr =  -8.00882403E-01
end
begin
atom   0.00000000E+00   0.00000000E+00   0.00000000E+00 Ne   0.00000000E+00   0.00000000E+00  -8.31268676E-02  -8.31268676E-02  -8.31268676E-02
atom   6.46632301E-01   6.46632301E-01   6.46632301E-01 Ne   0.00000000E+00   0.00000000E+00   8.31268676E-02   8.31268676E-02   8.31268676E-02
energy  -9.99824113E-01
comment r =   1.12000000E+00, E =  -9.99824113E-01, dEdr =  -1.43979958E-01
end
begin
atom   0.00000000E+00   0.00000000E+00   0.00000000E+00 Ne   0.00000000E+00   0.00000000E+00   2.31840388E-01   2.31840388E-01   2.31840388E-01
atom   6.52405804E-01   6.52405804E-01   6.52405804E-01 Ne   0.00000000E+00   0.00000000E+00  -2.31840388E-01  -2.31840388E-01  -2.31840388E-01
energy  -9.98450559E-01
comment r =   1.13000000E+00, E =  -9.98450559E-01, dEdr =   4.01559331E-01
end
begin
atom   0.00000000E+00   0.00000000E+00   0.00000000E+00 Ne   0.00000000E+00   0.00000000E+00   4.91882287E-01   4.91882287E-01   4.91882287E-01
atom   6.58179307E-01   6.58179307E-01   6.58179307E-01 Ne   0.00000000E+00   0.00000000E+00  -4.91882287E-01  -4.91882287E-01  -4.91882287E-01
energy  -9.92109781E-01
comment r =   1.14000000E+00, E =  -9.92109781E-01, dEdr =   8.51965112E-01
end
begin
atom   0.00000000E+00   0.00000000E+00   0.00000000E+00 Ne   0.00000000E+00   0.00000000E+00   7.05029571E-01   7.05029571E-01   7.05029571E-01
atom   6.63952810E-01   6.63952810E-01   6.63952810E-01 Ne   0.00000000E+00   0.00000000E+00  -7.05029571E-01  -7.05029571E-01  -7.05029571E-01
energy  -9.81681783E-01
comment r =   1.15000000E+00, E =  -9.81681783E-01, dEdr =   1.22114704E+00
end
begin
atom   0.00000000E+00   0.00000000E+00   0.00000000E+00 Ne   0.00000000E+00   0.00000000E+00   8.78168464E-01   8.78168464E-01   8.78168464E-01
atom   6.69726312E-01   6.69726312E-01   6.69726312E-01 Ne   0.00000000E+00   0.00000000E+00  -8.78168464E-01  -8.78168464E-01  -8.78168464E-01
energy  -9.67917641E-01
comment r =   1.16000000E+00, E =  -9.67917641E-01, dEdr =   1.52103240E+00
end
begin
atom   0.00000000E+00   0.00000000E+00   0.00000000E+00 Ne   0.00000000E+00   0.00000000E+00   1.01720634E+00   1.01720634E+00   1.01720634E+00
atom   6.75499815E-01   6.75499815E-01   6.75499815E-01 Ne   0.00000000E+00   0.00000000E+00  -1.01720634E+00  -1.01720634E+00  -1.01720634E+00
energy  -9.51457857E-01
comment r =   1.17000000E+00, E =  -9.51457857E-01, dEdr =   1.76185306E+00
end
begin
atom   0.00000000E+00   0.00000000E+00   0.00000000E+00 Ne   0.00000000E+00   0.00000000E+00   1.12721266E+00   1.12721266E+00   1.12721266E+00
atom   6.81273318E-01   6.81273318E-01   6.81273318E-01 Ne   0.00000000E+00   0.00000000E+00  -1.12721266E+00  -1.12721266E+00  -1.12721266E+00
energy  -9.32848056E-01
comment r =   1.18000000E+00, E =  -9.32848056E-01, dEdr =   1.95238960E+00
end
begin
atom   0.00000000E+00   0.00000000E+00   0.00000000E+00 Ne   0.00000000E+00   0.00000000E+00   1.21253907E+00   1.21253907E+00   1.21253907E+00
atom   6.87046820E-01   6.87046820E-01   6.87046820E-01 Ne   0.00000000E+00   0.00000000E+00  -1.21253907E+00  -1.21253907E+00  -1.21253907E+00
energy  -9.12552436E-01
comment r =   1.19000000E+00, E =  -9.12552436E-01, dEdr =   2.10017928E+00
end
begin
atom   0.00000000E+00   0.00000000E+00   0.00000000E+00 Ne   0.00000000E+00   0.00000000E+00   1.27692175E+00   1.27692175E+00   1.27692175E+00
atom   6.92820323E-01   6.92820323E-01   6.92820323E-01 Ne   0.00000000E+00   0.00000000E+00  -1.27692175E+00  -1.27692175E+00  -1.27692175E+00
energy  -8.90965288E-01
comment r =   1.20000000E+00, E =  -8.90965288E-01, dEdr =   2.21169334E+00
end
begin
atom   0.00000000E+00   0.00000000E+00   0.00000000E+00 Ne   0.00000000E+00   0.00000000E+00   1.32356877E+00   1.32356877E+00   1.32356877E+00
atom   6.98593826E-01   6.98593826E-01   6.98593826E-01 Ne   0.00000000E+00   0.00000000E+00  -1.32356877E+00  -1.32356877E+00  -1.32356877E+00
energy  -8.68420879E-01
comment r =   1.21000000E+00, E =  -8.68420879E-01, dEdr =   2.29248836E+00
end
begin
atom   0.00000000E+00   0.00000000E+00   0.00000000E+00 Ne   0.00000000E+00   0.00000000E+00   1.35523484E+00   1.35523484E+00   1.35523484E+00
atom   7.04367328E-01   7.04367328E-01   7.04367328E-01 Ne   0.00000000E+00   0.00000000E+00  -1.35523484E+00  -1.35523484E+00  -1.35523484E+00
energy  -8.45201938E-01
comment r =   1.22000000E+00, E =  -8.45201938E-01, dEdr =   2.34733561E+00
end
begin
atom   0.00000000E+00   0.00000000E+00   0.00000000E+00 Ne   0.00000000E+00   0.00000000E+00   1.37428509E+00   1.37428509E+00   1.37428509E+00
atom   7.10140831E-01   7.10140831E-01   7.10140831E-01 Ne   0.00000000E+00   0.00000000E+00  -1.37428509E+00  -1.37428509E+00  -1.37428509E+00
energy  -8.21546940E-01
comment r =   1.23000000E+00, E =  -8.21546940E-01, dEdr =   2.38033160E+00
end
begin
atom   0.00000000E+00   0.00000000E+00   0.00000000E+00 Ne   0.00000000E+00   0.00000000E+00   1.38274975E+00   1.38274975E+00   1.38274975E+00
atom   7.15914334E-01   7.15914334E-01   7.15914334E-01 Ne   0.00000000E+00   0.00000000E+00  -1.38274975E+00  -1.38274975E+00  -1.38274975E+00
energy  -7.97656367E-01
comment r =   1.24000000E+00, E =  -7.97656367E-01, dEdr =   2.39499283E+00
end
begin
atom   0.00000000E+00   0.00000000E+00   0.00000000E+00 Ne   0.00000000E+00   0.00000000E+00   1.38237105E+00   1.38237105E+00   1.38237105E+00
atom   7.21687836E-01   7.21687836E-01   7.21687836E-01 Ne   0.00000000E+00   0.00000000E+00  -1.38237105E+00  -1.38237105E+00  -1.38237105E+00
energy  -7.73698093E-01
comment r =   1.25000000E+00, E =  -7.73698093E-01, dEdr =   2.39433689E+00
end
begin
atom   0.00000000E+00   0.00000000E+00   0.00000000E+00 Ne   0.00000000E+00   0.00000000E+00   1.37464330E+00   1.37464330E+00   1.37464330E+00
atom   7.27461339E-01   7.27461339E-01   7.27461339E-01 Ne   0.00000000E+00   0.00000000E+00  -1.37464330E+00  -1.37464330E+00  -1.37464330E+00
energy  -7.49812018E-01
comment r =   1.26000000E+00, E =  -7.49812018E-01, dEdr =   2.38095204E+00
end
begin
atom   0.00000000E+00   0.00000000E+00   0.00000000E+00 Ne   0.00000000E+00   0.00000000E+00   1.36084745E+00   1.36084745E+00   1.36084745E+00
atom   7.33234842E-01   7.33234842E-01   7.33234842E-01 Ne   0.00000000E+00   0.00000000E+00  -1.36084745E+00  -1.36084745E+00  -1.36084745E+00
energy  -7.26114051E-01
comment r =   1.27000000E+00, E =  -7.26114051E-01, dEdr =   2.35705692E+00
end
begin
atom   0.00000000E+00   0.00000000E+00   0.00000000E+00 Ne   0.00000000E+00   0.00000000E+00   1.34208064E+00   1.34208064E+00   1.34208064E+00
atom   7.39008345E-01   7.39008345E-01   7.39008345E-01 Ne   0.00000000E+00   0.00000000E+00  -1.34208064E+00  -1.34208064E+00  -1.34208064E+00
energy  -7.02699549E-01
comment r =   1.28000000E+00, E =  -7.02699549E-01, dEdr =   2.32455185E+00
end
begin
atom   0.00000000E+00   0.00000000E+00   0.00000000E+00 Ne   0.00000000E+00   0.00000000E+00   1.31928169E+00   1.31928169E+00   1.31928169E+00
atom   7.44781847E-01   7.44781847E-01   7.44781847E-01 Ne   0.00000000E+00   0.00000000E+00  -1.31928169E+00  -1.31928169E+00  -1.31928169E+00
energy  -6.79646267E-01
comment r =   1.29000000E+00, E =  -6.79646267E-01, dEdr =   2.28506292E+00
end
begin
atom   0.00000000E+00   0.00000000E+00   0.00000000E+00 Ne   0.00000000E+00   0.00000000E+00   1.29325302E+00   1.29325302E+00   1.29325302E+00
atom   7.50555350E-01   7.50555350E-01   7.50555350E-01 Ne   0.00000000E+00   0.00000000E+00  -1.29325302E+00  -1.29325302E+00  -1.29325302E+00
energy  -6.57016914E-01
comment r =   1.30000000E+00, E =  -6.57016914E-01, dEdr =   2.23997993E+00
end
begin
atom   0.00000000E+00   0.00000000E+00   0.00000000E+00 Ne   0.00000000E+00   0.00000000E+00   1.26467942E+00   1.26467942E+00   1.26467942E+00
atom   7.56328853E-01   7.56328853E-01   7.56328853E-01 Ne   0.00000000E+00   0.00000000E+00  -1.26467942E+00  -1.26467942E+00  -1.26467942E+00
energy  -6.34861342E-01
comment r =   1.31000000E+00, E =  -6.34861342E-01, dEdr =   2.19048901E+00
end
begin
atom   0.00000000E+00   0.00000000E+00   0.00000000E+00 Ne   0.00000000E+00   0.00000000E+00   1.23414440E+00   1.23414440E+00   1.23414440E+00
atom   7.62102355E-01   7.62102355E-01   7.62102355E-01 Ne   0.00000000E+00   0.00000000E+00  -1.23414440E+00  -1.23414440E+00  -1.23414440E+00
energy  -6.13218442E-01
comment r =   1.32000000E+00, E =  -6.13218442E-01, dEdr =   2.13760080E+00
end
begin
atom   0.00000000E+00   0.00000000E+00   0.00000000E+00 Ne   0.00000000E+00   0.00000000E+00   1.20214407E+00   1.20214407E+00   1.20214407E+00
atom   7.67875858E-01   7.67875858E-01   7.67875858E-01 Ne   0.00000000E+00   0.00000000E+00  -1.20214407E+00  -1.20214407E+00  -1.20214407E+00
energy  -5.92117772E-01
comment r =   1.33000000E+00, E =  -5.92117772E-01, dEdr =   2.08217461E+00
end
begin
atom   0.00000000E+00   0.00000000E+00   0.00000000E+00 Ne   0.00000000E+00   0.00000000E+00   1.16909931E+00   1.16909931E+00   1.16909931E+00
atom   7.73649361E-01   7.73649361E-01   7.73649361E-01 Ne   0.00000000E+00   0.00000000E+00  -1.16909931E+00  -1.16909931E+00  -1.16909931E+00
energy  -5.71580967E-01
comment r =   1.34000000E+00, E =  -5.71580967E-01, dEdr =   2.02493940E+00
end
begin
atom   0.00000000E+00   0.00000000E+00   0.00000000E+00 Ne   0.00000000E+00   0.00000000E+00   1.13536610E+00   1.13536610E+00   1.13536610E+00
atom   7.79422863E-01   7.79422863E-01   7.79422863E-01 Ne   0.00000000E+00   0.00000000E+00  -1.13536610E+00  -1.13536610E+00  -1.13536610E+00
energy  -5.51622948E-01
comment r =   1.35000000E+00, E =  -5.51622948E-01, dEdr =   1.96651177E+00
end
begin
atom   0.00000000E+00   0.00000000E+00   0.00000000E+00 Ne   0.00000000E+00   0.00000000E+00   1.10124456E+00   1.10124456E+00   1.10124456E+00
atom   7.85196366E-01   7.85196366E-01   7.85196366E-01 Ne   0.00000000E+00   0.00000000E+00  -1.10124456E+00  -1.10124456E+00  -1.10124456E+00
energy  -5.32252964E-01
comment r =   1.36000000E+00, E =  -5.32252964E-01, dEdr =   1.90741154E+00
end
begin
atom   0.00000000E+00   0.00000000E+00   0.00000000E+00 Ne   0.00000000E+00   0.00000000E+00   1.06698669E+00   1.06698669E+00   1.06698669E+00
atom   7.90969869E-01   7.90969869E-01   7.90969869E-01 Ne   0.00000000E+00   0.00000000E+00  -1.06698669E+00  -1.06698669E+00  -1.06698669E+00
energy  -5.13475496E-01
comment r =   1.37000000E+00, E =  -5.13475496E-01, dEdr =   1.84807516E+00
end
begin
atom   0.00000000E+00   0.00000000E+00   0.00000000E+00 Ne   0.00000000E+00   0.00000000E+00   1.03280308E+00   1.03280308E+00   1.03280308E+00
atom   7.96743371E-01   7.96743371E-01   7.96743371E-01 Ne   0.00000000E+00   0.00000000E+00  -1.03280308E+00  -1.03280308E+00  -1.03280308E+00
energy  -4.95291026E-01
comment r =   1.38000000E+00, E =  -4.95291026E-01, dEdr =   1.78886740E+00
end
begin
atom   0.00000000E+00   0.00000000E+00   0.00000000E+00 Ne   0.00000000E+00   0.00000000E+00   9.98868680E-01   9.98868680E-01   9.98868680E-01
atom   8.02516874E-01   8.02516874E-01   8.02516874E-01 Ne   0.00000000E+00   0.00000000E+00  -9.98868680E-01  -9.98868680E-01  -9.98868680E-01
energy  -4.77696704E-01
comment r =   1.39000000E+00, E =  -4.77696704E-01, dEdr =   1.73009130E+00
end
begin
atom   0.00000000E+00   0.00000000E+00   0.00000000E+00 Ne   0.00000000E+00   0.00000000E+00   9.65327860E-01   9.65327860E-01   9.65327860E-01
atom   8.08290377E-01   8.08290377E-01   8.08290377E-01 Ne   0.00000000E+00   0.00000000E+00  -9.65327860E-01  -9.65327860E-01  -9.65327860E-01
energy  -4.60686922E-01
comment r =   1.40000000E+00, E =  -4.60686922E-01, dEdr =   1.67199690E+00
end
begin
atom   0.00000000E+00   0.00000000E+00   0.00000000E+00 Ne   0.00000000E+00   0.00000000E+00   9.32298690E-01   9.32298690E-01   9.32298690E-01
atom   8.14063880E-01   8.14063880E-01   8.14063880E-01 Ne   0.00000000E+00   0.00000000E+00  -9.32298690E-01  -9.32298690E-01  -9.32298690E-01
energy  -4.44253807E-01
comment r =   1.41000000E+00, E =  -4.44253807E-01, dEdr =   1.61478870E+00
end
begin
atom   0.00000000E+00   0.00000000E+00   0.00000000E+00 Ne   0.00000000E+00   0.00000000E+00   8.99876705E-01   8.99876705E-01   8.99876705E-01
atom   8.19837382E-01   8.19837382E-01   8.19837382E-01 Ne   0.00000000E+00   0.00000000E+00  -8.99876705E-01  -8.99876705E-01  -8.99876705E-01
energy  -4.28387639E-01
comment r =   1.42000000E+00, E =  -4.28387639E-01, dEdr =   1.55863217E+00
end
begin
atom   0.00000000E+00   0.00000000E+00   0.00000000E+00 Ne   0.00000000E+00   0.00000000E+00   8.68138141E-01   8.68138141E-01   8.68138141E-01
atom   8.25610885E-01   8.25610885E-01   8.25610885E-01 Ne   0.00000000E+00   0.00000000E+00  -8.68138141E-01  -8.68138141E-01  -8.68138141E-01
energy  -4.13077215E-01
comment r =   1.43000000E+00, E =  -4.13077215E-01, dEdr =   1.50365937E+00
end
begin
atom   0.00000000E+00   0.00000000E+00   0.00000000E+00 Ne   0.00000000E+00   0.00000000E+00   8.37142729E-01   8.37142729E-01   8.37142729E-01
atom   8.31384388E-01   8.31384388E-01   8.31384388E-01 Ne   0.00000000E+00   0.00000000E+00  -8.37142729E-01  -8.37142729E-01  -8.37142729E-01
energy  -3.98310158E-01
comment r =   1.44000000E+00, E =  -3.98310158E-01, dEdr =   1.44997374E+00
end
begin
atom   0.00000000E+00   0.00000000E+00   0.00000000E+00 Ne   0.00000000E+00   0.00000000E+00   8.06936119E-01   8.06936119E-01   8.06936119E-01
atom   8.37157890E-01   8.37157890E-01   8.37157890E-01 Ne   0.00000000E+00   0.00000000E+00  -8.06936119E-01  -8.06936119E-01  -8.06936119E-01
energy  -3.84073184E-01
comment r =   1.45000000E+00, E =  -3.84073184E-01, dEdr =   1.39765436E+00
end
begin
atom   0.00000000E+00   0.00000000E+00   0.00000000E+00 Ne   0.00000000E+00   0.00000000E+00   7.77551972E-01   7.77551972E-01   7.77551972E-01
atom   8.42931393E-01   8.42931393E-01   8.42931393E-01 Ne   0.00000000E+00   0.00000000E+00  -7.77551972E-01  -7.77551972E-01  -7.77551972E-01
energy  -3.70352321E-01
comment r =   1.46000000E+00, E =  -3.70352321E-01, dEdr =   1.34675952E+00
end
begin
atom   0.00000000E+00   0.00000000E+00   0.00000000E+00 Ne   0.00000000E+00   0.00000000E+00   7.49013769E-01   7.49013769E-01   7.49013769E-01
atom   8.48704896E-01   8.48704896E-01   8.48704896E-01 Ne   0.00000000E+00   0.00000000E+00  -7.49013769E-01  -7.49013769E-01  -7.49013769E-01
energy  -3.57133107E-01
comment r =   1.47000000E+00, E =  -3.57133107E-01, dEdr =   1.29732990E+00
end
begin
atom   0.00000000E+00   0.00000000E+00   0.00000000E+00 Ne   0.00000000E+00   0.00000000E+00   7.21336370E-01   7.21336370E-01   7.21336370E-01
atom   8.54478398E-01   8.54478398E-01   8.54478398E-01 Ne   0.00000000E+00   0.00000000E+00  -7.21336370E-01  -7.21336370E-01  -7.21336370E-01
energy  -3.44400751E-01
comment r =   1.48000000E+00, E =  -3.44400751E-01, dEdr =   1.24939124E+00
end
begin
atom   0.00000000E+00   0.00000000E+00   0.00000000E+00 Ne   0.00000000E+00   0.00000000E+00   6.94527370E-01   6.94527370E-01   6.94527370E-01
atom   8.60251901E-01   8.60251901E-01   8.60251901E-01 Ne   0.00000000E+00   0.00000000E+00  -6.94527370E-01  -6.94527370E-01  -6.94527370E-01
energy  -3.32140268E-01
comment r =   1.49000000E+00, E =  -3.32140268E-01, dEdr =   1.20295669E+00
end
begin
atom   0.00000000E+00   0.00000000E+00   0.00000000E+00 Ne   0.00000000E+00   0.00000000E+00   6.68588257E-01   6.68588257E-01   6.68588257E-01
atom   8.66025404E-01   8.66025404E-01   8.66025404E-01 Ne   0.00000000E+00   0.00000000E+00  -6.68588257E-01  -6.68588257E-01  -6.68588257E-01
energy  -3.20336594E-01
comment r =   1.50000000E+00, E =  -3.20336594E-01, dEdr =   1.15802883E+00
end
begin
atom   0.00000000E+00   0.00000000E+00   0.00000000E+00 Ne   0.00000000E+00   0.00000000E+00   6.43515424E-01   6.43515424E-01   6.43515424E-01
atom   8.71798906E-01   8.71798906E-01   8.71798906E-01 Ne   0.00000000E+00   0.00000000E+00  -6.43515424E-01  -6.43515424E-01  -6.43515424E-01
energy  -3.08974689E-01
comment r =   1.51000000E+00, E =  -3.08974689E-01, dEdr =   1.11460141E+00
end
begin
atom   0.00000000E+00   0.00000000E+00   0.00000000E+00 Ne   0.00000000E+00   0.00000000E+00   6.19301030E-01   6.19301030E-01   6.19301030E-01
atom   8.77572409E-01   8.77572409E-01   8.77572409E-01 Ne   0.00000000E+00   0.00000000E+00  -6.19301030E-01  -6.19301030E-01  -6.19301030E-01
energy  -2.98039609E-01
comment r =   1.52000000E+00, E =  -2.98039609E-01, dEdr =   1.07266085E+00
end
begin
atom   0.00000000E+00   0.00000000E+00   0.00000000E+00 Ne   0.00000000E+00   0.00000000E+00   5.95933747E-01   5.95933747E-01   5.95933747E-01
atom   8.83345912E-01   8.83345912E-01   8.83345912E-01 Ne   0.00000000E+00   0.00000000E+00  -5.95933747E-01  -5.95933747E-01  -5.95933747E-01
energy  -2.87516580E-01
comment r =   1.53000000E+00, E =  -2.87516580E-01, dEdr =   1.03218753E+00
end
begin
atom   0.00000000E+00   0.00000000E+00   0.00000000E+00 Ne   0.00000000E+00   0.00000000E+00   5.73399404E-01   5.73399404E-01   5.73399404E-01
atom   8.89119415E-01   8.89119415E-01   8.89119415E-01 Ne   0.00000000E+00   0.00000000E+00  -5.73399404E-01  -5.73399404E-01  -5.73399404E-01
energy  -2.77391049E-01
comment r =   1.54000000E+00, E =  -2.77391049E-01, dEdr =   9.93156900E-01
end
begin
atom   0.00000000E+00   0.00000000E+00   0.00000000E+00 Ne   0.00000000E+00   0.00000000E+00   5.51681534E-01   5.51681534E-01   5.51681534E-01
atom   8.94892917E-01   8.94892917E-01   8.94892917E-01 Ne   0.00000000E+00   0.00000000E+00  -5.51681534E-01  -5.51681534E-01  -5.51681534E-01
energy  -2.67648728E-01
comment r =   1.55000000E+00, E =  -2.67648728E-01, dEdr =   9.55540446E-01
end
begin
atom   0.00000000E+00   0.00000000E+00   0.00000000E+00 Ne   0.00000000E+00   0.00000000E+00   5.30761850E-01   5.30761850E-01   5.30761850E-01
atom   9.00666420E-01   9.00666420E-01   9.00666420E-01 Ne   0.00000000E+00   0.00000000E+00  -5.30761850E-01  -5.30761850E-01  -5.30761850E-01
energy  -2.58275632E-01
comment r =   1.56000000E+00, E =  -2.58275632E-01, dEdr =   9.19306492E-01
end
begin
atom   0.00000000E+00   0.00000000E+00   0.00000000E+00 Ne   0.00000000E+00   0.00000000E+00   5.10620650E-01   5.10620650E-01   5.10620650E-01
atom   9.06439923E-01   9.06439923E-01   9.06439923E-01 Ne   0.00000000E+00   0.00000000E+00  -5.10620650E-01  -5.10620650E-01  -5.10620650E-01
energy  -2.49258104E-01
comment r =   1.57000000E+00, E =  -2.49258104E-01, dEdr =   8.84420909E-01
end
begin
atom   0.00000000E+00   0.00000000E+00   0.00000000E+00 Ne   0.00000000E+00   0.00000000E+00   4.91237157E-01   4.91237157E-01   4.91237157E-01
atom   9.12213425E-01   9.12213425E-01   9.12213425E-01 Ne   0.00000000E+00   0.00000000E+00  -4.91237157E-01  -4.91237157E-01  -4.91237157E-01
energy  -2.40582839E-01
comment r =   1.58000000E+00, E =  -2.40582839E-01, dEdr =   8.50847714E-01
end
begin
atom   0.00000000E+00   0.00000000E+00   0.00000000E+00 Ne   0.00000000E+00   0.00000000E+00   4.72589820E-01   4.72589820E-01   4.72589820E-01
atom   9.17986928E-01   9.17986928E-01   9.17986928E-01 Ne   0.00000000E+00   0.00000000E+00  -4.72589820E-01  -4.72589820E-01  -4.72589820E-01
energy  -2.32236899E-01
comment r =   1.59000000E+00, E =  -2.32236899E-01, dEdr =   8.18549579E-01
end
begin
atom   0.00000000E+00   0.00000000E+00   0.00000000E+00 Ne   0.00000000E+00   0.00000000E+00   4.54656560E-01   4.54656560E-01   4.54656560E-01
atom   9.23760431E-01   9.23760431E-01   9.23760431E-01 Ne   0.00000000E+00   0.00000000E+00  -4.54656560E-01  -4.54656560E-01  -4.54656560E-01
energy  -2.24207724E-01
comment r =   1.60000000E+00, E =  -2.24207724E-01, dEdr =   7.87488261E-01
end
begin
atom   0.00000000E+00   0.00000000E+00   0.00000000E+00 Ne   0.00000000E+00   0.00000000E+00   4.37414983E-01   4.37414983E-01   4.37414983E-01
atom   9.29533933E-01   9.29533933E-01   9.29533933E-01 Ne   0.00000000E+00   0.00000000E+00  -4.37414983E-01  -4.37414983E-01  -4.37414983E-01
energy  -2.16483140E-01
comment r =   1.61000000E+00, E =  -2.16483140E-01, dEdr =   7.57624975E-01
end
begin
atom   0.00000000E+00   0.00000000E+00   0.00000000E+00 Ne   0.00000000E+00   0.00000000E+00   4.20842560E-01   4.20842560E-01   4.20842560E-01
atom   9.35307436E-01   9.35307436E-01   9.35307436E-01 Ne   0.00000000E+00   0.00000000E+00  -4.20842560E-01  -4.20842560E-01  -4.20842560E-01
energy  -2.09051362E-01
comment r =   1.62000000E+00, E =  -2.09051362E-01, dEdr =   7.28920696E-01
end
begin
atom   0.00000000E+00   0.00000000E+00   0.00000000E+00 Ne   0.00000000E+00   0.00000000E+00   4.04916775E-01   4.04916775E-01   4.04916775E-01
atom   9.41080939E-01   9.41080939E-01   9.41080939E-01 Ne   0.00000000E+00   0.00000000E+00  -4.04916775E-01  -4.04916775E-01  -4.04916775E-01
energy  -2.01900993E-01
comment r =   1.63000000E+00, E =  -2.01900993E-01, dEdr =   7.01336426E-01
end
begin
atom   0.00000000E+00   0.00000000E+00   0.00000000E+00 Ne   0.00000000E+00   0.00000000E+00   3.89615248E-01   3.89615248E-01   3.89615248E-01
atom   9.46854441E-01   9.46854441E-01   9.46854441E-01 Ne   0.00000000E+00   0.00000000E+00  -3.89615248E-01  -3.89615248E-01  -3.89615248E-01
energy  -1.95021029E-01
comment r =   1.64000000E+00, E =  -1.95021029E-01, dEdr =   6.74833406E-01
end
begin
atom   0.00000000E+00   0.00000000E+00   0.00000000E+00 Ne   0.00000000E+00   0.00000000E+00   3.74915846E-01   3.74915846E-01   3.74915846E-01
atom   9.52627944E-01   9.52627944E-01   9.52627944E-01 Ne   0.00000000E+00   0.00000000E+00  -3.74915846E-01  -3.74915846E-01  -3.74915846E-01
energy  -1.88400849E-01
comment r =   1.65000000E+00, E =  -1.88400849E-01, dEdr =   6.49373295E-01
end
begin
atom   0.00000000E+00   0.00000000E+00   0.00000000E+00 Ne   0.00000000E+00   0.00000000E+00   3.60796761E-01   3.60796761E-01   3.60796761E-01
atom   9.58401447E-01   9.58401447E-01   9.58401447E-01 Ne   0.00000000E+00   0.00000000E+00  -3.60796761E-01  -3.60796761E-01  -3.60796761E-01
energy  -1.82030213E-01
comment r =   1.66000000E+00, E =  -1.82030213E-01, dEdr =   6.24918320E-01
end
begin
atom   0.00000000E+00   0.00000000E+00   0.00000000E+00 Ne   0.00000000E+00   0.00000000E+00   3.47236580E-01   3.47236580E-01   3.47236580E-01
atom   9.64174950E-01   9.64174950E-01   9.64174950E-01 Ne   0.00000000E+00   0.00000000E+00  -3.47236580E-01  -3.47236580E-01  -3.47236580E-01
energy  -1.75899255E-01
comment r =   1.67000000E+00, E =  -1.75899255E-01, dEdr =   6.01431398E-01
end
begin
atom   0.00000000E+00   0.00000000E+00   0.00000000E+00 Ne   0.00000000E+00   0.00000000E+00   3.34214345E-01   3.34214345E-01   3.34214345E-01
atom   9.69948452E-01   9.69948452E-01   9.69948452E-01 Ne   0.00000000E+00   0.00000000E+00  -3.34214345E-01  -3.34214345E-01  -3.34214345E-01
energy  -1.69998479E-01
comment r =   1.68000000E+00, E =  -1.69998479E-01, dEdr =   5.78876226E-01
end
begin
atom   0.00000000E+00   0.00000000E+00   0.00000000E+00 Ne   0.00000000E+00   0.00000000E+00   3.21709594E-01   3.21709594E-01   3.21709594E-01
atom   9.75721955E-01   9.75721955E-01   9.75721955E-01 Ne   0.00000000E+00   0.00000000E+00  -3.21709594E-01  -3.21709594E-01  -3.21709594E-01
energy  -1.64318743E-01
comment r =   1.69000000E+00, E =  -1.64318743E-01, dEdr =   5.57217362E-01
end
begin
atom   0.00000000E+00   0.00000000E+00   0.00000000E+00 Ne   0.00000000E+00   0.00000000E+00   3.09702395E-01   3.09702395E-01   3.09702395E-01
atom   9.81495458E-01   9.81495458E-01   9.81495458E-01 Ne   0.00000000E+00   0.00000000E+00  -3.09702395E-01  -3.09702395E-01  -3.09702395E-01
energy  -1.58851259E-01
comment r =   1.70000000E+00, E =  -1.58851259E-01, dEdr =   5.36420284E-01
end
begin
atom   0.00000000E+00   0.00000000E+00   0.00000000E+00 Ne   0.00000000E+00   0.00000000E+00   2.98173372E-01   2.98173372E-01   2.98173372E-01
atom   9.87268960E-01   9.87268960E-01   9.87268960E-01 Ne   0.00000000E+00   0.00000000E+00  -2.98173372E-01  -2.98173372E-01  -2.98173372E-01
energy  -1.53587577E-01
comment r =   1.71000000E+00, E =  -1.53587577E-01, dEdr =   5.16451429E-01
end
begin
atom   0.00000000E+00   0.00000000E+00   0.00000000E+00 Ne   0.00000000E+00   0.00000000E+00   2.87103720E-01   2.87103720E-01   2.87103720E-01
atom   9.93042463E-01   9.93042463E-01   9.93042463E-01 Ne   0.00000000E+00   0.00000000E+00  -2.87103720E-01  -2.87103720E-01  -2.87103720E-01
energy  -1.48519579E-01
comment r =   1.72000000E+00, E =  -1.48519579E-01, dEdr =   4.97278230E-01
end
begin
atom   0.00000000E+00   0.00000000E+00   0.00000000E+00 Ne   0.00000000E+00   0.00000000E+00   2.76475222E-01   2.76475222E-01   2.76475222E-01
atom   9.98815966E-01   9.98815966E-01   9.98815966E-01 Ne   0.00000000E+00   0.00000000E+00  -2.76475222E-01  -2.76475222E-01  -2.76475222E-01
energy  -1.43639466E-01
comment r =   1.73000000E+00, E =  -1.43639466E-01, dEdr =   4.78869131E-01
end
begin
atom   0.00000000E+00   0.00000000E+00   0.00000000E+00 Ne   0.00000000E+00   0.00000000E+00   2.66270250E-01   2.66270250E-01   2.66270250E-01
atom   1.00458947E+00   1.00458947E+00   1.00458947E+00 Ne   0.00000000E+00   0.00000000E+00  -2.66270250E-01  -2.66270250E-01  -2.66270250E-01
energy  -1.38939751E-01
comment r =   1.74000000E+00, E =  -1.38939751E-01, dEdr =   4.61193602E-01
end
begin
atom   0.00000000E+00   0.00000000E+00   0.00000000E+00 Ne   0.00000000E+00   0.00000000E+00   2.56471773E-01   2.56471773E-01   2.56471773E-01