begin
comment Values for ['energy', 'charge', 'force of atom'] were set to default values
lattice   3.7285997399999999E+01   0.0000000000000000E+00   0.0000000000000000E+00
lattice   0.0000000000000000E+00   3.7285997399999999E+01   0.0000000000000000E+00
lattice   0.0000000000000000E+00   0.0000000000000000E+00   3.7285997399999999E+01
atom   1.5393882899999998E+01   1.5450053199999997E+01   1.7958337699999998E+01  O  -2.4222446839019240E-01   0.0000000000000000E+00   2.5194620416878477E+00  -2.7841022844887866E+00   3.1373061741649120E+00
atom   1.6432138200000001E+01   1.3949797700000000E+01   1.8450596200000000E+01  H   1.1386982862045239E-01   0.0000000000000000E+00  -1.9441343743148316E+00   5.6476874344034984E+00  -3.8727363556617772E-01
atom   1.4070126000000000E+01   1.4920389399999999E+01   1.6718101000000001E+01  H   1.2418670170342477E-01   0.0000000000000000E+00  -2.9206537098779428E+00   8.7253250356032741E-01  -1.8899052829142506E+00
atom   3.6059676629999998E+01   3.2862872289999999E+01   2.4082668000000002E+01  O  -2.5015097410068982E-01   0.0000000000000000E+00   1.1035581541852670E-01   4.0384347155401450E+00  -1.8911558759887759E+00
atom   3.4902844879999996E+01   3.1394445479999998E+01   2.3806029100000000E+01  H   1.2159813276226661E-01   0.0000000000000000E+00  -1.5974023319356156E+00  -4.0680132143421899E+00   5.4469839242707652E-01
atom   9.0164502999999979E-02   3.2396508670000003E+01   2.5355632900000000E+01  H   1.4148988835321463E-01   0.0000000000000000E+00   2.1023623505852425E+00  -1.7905690317635359E+00   2.5883923469775314E+00
atom   2.7548937800000002E+00   1.8038048199999999E+01   2.3447117099999999E+00  O  -1.8820599335966476E-01   0.0000000000000000E+00   8.5978555199458329E-01  -2.9311392719122429E+00  -2.7157286309182860E+00
atom   3.3076178899999999E+00   1.7995947000000001E+01   4.1513068999999998E+00  H   1.1764632210040805E-01   0.0000000000000000E+00   4.2455225941780850E-01   3.6128032553800399E-01   3.0332506951007288E+00
atom   3.2489022099999998E+00   1.6422952200000001E+01   1.4970769500000001E+00  H   9.4849123473162933E-02   0.0000000000000000E+00  -1.6052306939944729E+00   3.5583316951324466E+00   1.5468061586508721E+00
atom   5.7654864000000003E+00   1.3165752199999998E+01   1.7214741799999999E+01  O  -2.5025289652527360E-01   0.0000000000000000E+00  -2.7869004299296024E-01  -5.2942145434031207E-01  -1.4529540175624620E+00
atom   5.8948910699999999E+00   1.4685190299999999E+01   1.8330819699999999E+01  H   1.4720762296202070E-01   0.0000000000000000E+00   2.9646176474973374E-01   9.1380527487176189E-01   5.2160211007622281E-01
atom   6.5253755099999990E+00   1.1673921099999999E+01   1.8091142000000001E+01  H   1.1844706167061329E-01   0.0000000000000000E+00   3.6044768133295257E-01  -4.5014250215810014E-01   2.7952837632748544E+00
atom   1.0226527000000001E+01   1.5583800399999999E+01   2.3403521199999999E+00  O  -2.7528041849725271E-01   0.0000000000000000E+00   3.2713253283634640E+00   8.1317565392602917E-02   2.0424052906639147E+00
atom   9.5287928500000003E+00   1.6704330500000001E+01   9.8807921299999990E-01  H   1.3524603087422304E-01   0.0000000000000000E+00  -1.3748785827840533E+00   7.8583362872785079E-01  -1.4861598457506251E+00
atom   8.9740278399999998E+00   1.4227169800000000E+01   2.7426729200000000E+00  H   1.1713260688545643E-01   0.0000000000000000E+00  -1.9448257326402540E+00  -1.0952063221617188E+00  -4.0797486781744347E-01
atom   3.6695558138999999E+01   8.6084414200000001E+00   2.8275182270000002E+01  O  -2.9449284862060399E-01   0.0000000000000000E+00  -1.8042656667405903E+00  -1.4752927614696636E+00   1.7088823990329671E+00
atom   1.0505705700000001E+00   8.0763134399999998E+00   2.9046540130000000E+01  H   1.3038693983562516E-01   0.0000000000000000E+00   1.6488555514732961E+00   4.5791429938329087E-01  -2.9948607615339173E-01
atom   3.7027252318000002E+01   9.8129282900000003E+00   2.6857349100000000E+01  H   1.3145920483623658E-01   0.0000000000000000E+00   1.4199485715338496E+00   1.1425245713325183E+00  -1.4497502848599981E+00
atom   3.2095216399999998E+01   2.9637085199999995E+00   2.8941711350000002E+01  O  -2.8747935808140285E-01   0.0000000000000000E+00  -1.4421083181495273E+00   1.1304083946814989E+00   2.6788661430002629E+00
atom   3.3706211709999998E+01   3.9512113599999998E+00   2.8917231840000003E+01  H   1.2909488320284035E-01   0.0000000000000000E+00   2.3147698609034264E+00   1.6698409631088593E+00   1.9380134429830289E+00
atom   3.2178613790000000E+01   1.5902007600000001E+00   2.7646494949999997E+01  H   1.2286310692521989E-01   0.0000000000000000E+00  -3.3719388796108551E-01  -2.0096673948659709E+00  -1.2165149773009618E+00
atom   1.4797814199999998E+01   2.0533675400000000E+01   3.5723995129999999E+01  O  -2.7158761489857874E-01   0.0000000000000000E+00   2.3687809727641170E-02   1.3309981423985082E+00  -1.0121158831656663E+00
atom   1.4795414199999998E+01   1.9147500800000003E+01   3.7008353167000003E+01  H   1.3792710733002322E-01   0.0000000000000000E+00   6.0981676667433726E-01  -6.9787468442082501E-01   6.6023075019602273E-01
atom   1.6424108700000001E+01   2.1489963700000004E+01   3.5832378480000003E+01  H   1.3096726137310311E-01   0.0000000000000000E+00  -8.2150428438420173E-02  -8.7612350257048044E-01  -6.9063402256510042E-01
atom   1.1072483699999999E+01   3.6626488649000002E+01   6.8288579699999987E+00  O  -2.6853885810991357E-01   0.0000000000000000E+00  -4.1564288192655374E-01  -7.9201183188909918E-01  -5.6272605735490644E-01
atom   1.1156434799999998E+01   3.4790234210000001E+01   6.3904660800000004E+00  H   1.2922335820080838E-01   0.0000000000000000E+00   9.3120749127439251E-01  -9.3273807583231561E-02  -3.1807707512829969E-01
atom   1.1800789800000000E+01   3.5977740000000002E-01   5.4140445799999997E+00  H   1.0996353993135109E-01   0.0000000000000000E+00  -5.9022118026045574E-02  -7.5507538655740492E-01  -1.7449053902417577E-01
atom   4.0921074499999993E-01   5.7516139199999996E+00   1.4805055599999999E+01  O  -3.1709236317733980E-01   0.0000000000000000E+00  -1.1391600829556481E+00   8.4066330379213827E-01   1.9963115816029058E+00
atom   2.0083517999999998E+00   4.8504810100000002E+00   1.4355869599999998E+01  H   1.2876068948309802E-01   0.0000000000000000E+00   5.9783819640813829E-01  -2.3839511460644761E-01  -1.1648339836701900E+00
atom   3.6688552924000000E+01   6.0675685699999997E+00   1.3237291599999999E+01  H   1.3976337566153765E-01   0.0000000000000000E+00   2.3672489762722820E-01  -4.4945902687729372E-01  -7.8513800445607396E-01
atom   1.3827502200000000E+01   4.0298523199999998E+00   2.3190921300000003E+01  O  -2.7220638543321540E-01   0.0000000000000000E+00  -2.2785968854114413E+00  -1.1220224038752462E+00  -5.1257342376211068E-01
atom   1.5625536900000000E+01   4.6089985699999998E+00   2.3138679900000000E+01  H   1.2422954514253085E-01   0.0000000000000000E+00   6.5729690785909811E-01   5.7653295153873696E-01   6.3183523740589453E-01
atom   1.3054836600000000E+01   4.5225341500000003E+00   2.4843590800000001E+01  H   1.3349710435513434E-01   0.0000000000000000E+00   5.9448628734296860E-01  -2.9643364025557144E+00   1.8465212149462835E+00
atom   2.8802886399999998E+01   1.8401125100000002E+01   2.7122111100000001E+01  O  -2.3052999393290657E-01   0.0000000000000000E+00  -2.7833770121987125E+00  -2.2336117792245958E-01  -9.8782965403248357E-01
atom   2.9886120880000000E+01   1.6960611400000001E+01   2.6554146300000003E+01  H   1.4313086884207812E-01   0.0000000000000000E+00   3.8948542061316022E-01  -2.2383976671019483E+00  -2.6085610949992349E-01
atom   2.9885920570000003E+01   1.9725278899999999E+01   2.7925193650000001E+01  H   1.5153078280028875E-01   0.0000000000000000E+00   1.8623239894770929E+00   2.6193186437230529E+00   1.2323883791588095E+00
atom   3.4258675029999999E+01   2.0171968600000000E+01   1.1311946000000001E+01  O  -2.8631817933236159E-01   0.0000000000000000E+00  -3.1886102097263600E+00  -5.9053658466961512E-01  -1.0262880246025907E+00
atom   3.5276806559999997E+01   2.1654681699999998E+01   1.0732257399999998E+01  H   1.3450970017421907E-01   0.0000000000000000E+00   1.8035208969485390E+00   1.1548509979391997E+00   6.2576449721287553E-01
atom   3.5179226770000000E+01   1.9279934699999998E+01   1.2700441200000000E+01  H   1.4346432925309599E-01   0.0000000000000000E+00   1.5283966352707397E+00   2.2060247518704956E-01   8.2574983984793882E-01
atom   2.6629807199999998E+01   5.6543497199999990E+00   6.7033782699999991E+00  O  -2.7407991072432075E-01   0.0000000000000000E+00  -4.8419554799236242E-01   2.1130729394677812E+00   1.5529181055706274E+00
atom   2.7754513580000001E+01   5.5905601199999992E+00   5.1861322699999990E+00  H   1.0740771963653888E-01   0.0000000000000000E+00   1.1164223363738610E+00  -1.3712621408137229E+00  -1.1677262959514696E+00
atom   2.5904570000000000E+01   3.9387410599999999E+00   7.0224056099999990E+00  H   1.3371162862940728E-01   0.0000000000000000E+00   3.1445449347268700E-01  -9.0877613115515776E-01  -2.3879433822172078E-01
atom   3.6242399919999997E+01   2.9145423830000002E+01   1.2312038199999999E+00  O  -2.4949408962371347E-01   0.0000000000000000E+00   1.1998852376134330E+00  -5.6616207254742190E-01  -6.9698182379208407E-01
atom   3.6211251570000002E+01   2.7328000510000003E+01   7.1441852299999986E-01  H   8.8997280459092470E-02   0.0000000000000000E+00  -5.5002954856443564E-01   2.0284236747203463E-01  -8.3067715218018590E-01
atom   3.4787444970000003E+01   2.9497319179999998E+01   2.3846076099999998E+00  H   1.5115482630135035E-01   0.0000000000000000E+00  -1.6614499673982293E+00   1.2895634847035031E+00   1.7121484789329826E+00
atom   2.9593445769999999E+01   3.3710467369999996E+01   1.5760002300000000E+01  O  -2.3068407364320223E-01   0.0000000000000000E+00   1.0232079826931517E-01   7.3355493657630699E-01  -2.2269104024534960E+00
atom   2.8958652740000002E+01   3.2167942510000003E+01   1.6648101700000002E+01  H   1.2815243476205748E-01   0.0000000000000000E+00  -2.3223473146657794E+00  -3.9086625458438591E+00   1.0096403703365373E+00
atom   3.0450493259999998E+01   3.4845697670000000E+01   1.7004101599999998E+01  H   1.0652585526290724E-01   0.0000000000000000E+00  -2.3493056169965645E-01   1.7568983486729812E+00  -1.9449341334005785E+00
atom   6.9262128799999987E+00   2.3412918800000000E+01   2.4172154100000000E+01  O  -2.5981773923098211E-01   0.0000000000000000E+00  -2.9540925001099683E+00   3.3774185944561985E+00   9.0239631382031071E-01
atom   8.1436859500000001E+00   2.2072129799999999E+01   2.4711701099999999E+01  H   1.1136558142180467E-01   0.0000000000000000E+00   1.8692147551691796E+00  -1.9940403788143337E+00   5.5780592810232410E-01
atom   7.0573258599999997E+00   2.3668094199999999E+01   2.2304331800000003E+01  H   1.4669009287895374E-01   0.0000000000000000E+00   1.1123394616591662E+00  -7.4623750864620930E-01   2.3227283753284861E-01
atom   4.4874646199999999E+00   2.4342206800000000E+01   3.1739239239999996E+01  O  -2.2844117614936127E-01   0.0000000000000000E+00  -3.6331105433370583E+00   4.7813730110710706E-01  -3.4340485573565505E+00
atom   6.0102059399999987E+00   2.3257326300000003E+01   3.1464722499999997E+01  H   1.1025814501337598E-01   0.0000000000000000E+00   2.6985861445858923E+00  -1.7685045611898742E+00  -4.3658258572357045E-01
atom   3.3388285999999998E+00   2.4205252600000001E+01   3.0244936410000001E+01  H   1.0537480888366428E-01   0.0000000000000000E+00   1.8928100228946867E+00  -7.6929035616951680E-01   2.7931007554709759E+00
atom   2.8683096660000000E+01   2.5074921600000000E+01   2.5726040000000001E+01  O  -2.5950238463037284E-01   0.0000000000000000E+00  -4.9189392783591614E+00   2.0039242075383235E+00  -4.8850343521149220E-01
atom   3.0361462590000002E+01   2.5410620099999999E+01   2.4925126800000001E+01  H   5.9822167884872157E-02   0.0000000000000000E+00   1.6220934453487452E+00   6.9442089817358910E-01  -8.3810255061106398E-01
atom   2.8866747799999999E+01   2.3717875299999999E+01   2.7028253999999997E+01  H   1.3993381923891249E-01   0.0000000000000000E+00   1.2987564257203446E-01  -3.7469347850502071E+00   3.4687657636705542E+00
atom   3.3277151279999998E+01   3.4085169829999998E+01   4.5632124000000003E+00  O  -2.9337512207041017E-01   0.0000000000000000E+00  -2.0956944090883125E+00   1.4879255377625282E+00   1.2085213543389843E+00
atom   3.3435366709999997E+01   3.2212182889999994E+01   4.3683929700000004E+00  H   1.4068769442604895E-01   0.0000000000000000E+00   1.5528675218436014E+00  -3.4866977130028182E-01  -1.5607978940743168E+00
atom   3.4617384739999999E+01   3.4940155630000000E+01   3.5415300799999994E+00  H   1.3167133406327558E-01   0.0000000000000000E+00   7.9746256864256526E-01  -1.4432760047009845E+00  -2.3252421331653308E-01
atom   3.7581059200000002E+00   1.9605252900000000E+01   1.6196506299999999E+01  O  -2.9481033990703231E-01   0.0000000000000000E+00   3.3335617326520692E+00   3.6910936221889851E-01   1.8201124918731779E-01
atom   2.3262415299999994E+00   2.0726603200000000E+01   1.6709737000000001E+01  H   1.3132443186377463E-01   0.0000000000000000E+00  -1.3838664878710396E+00   5.0173684315928058E-02  -1.9580896823509208E-01
atom   3.1347721999999996E+00   1.7830359699999999E+01   1.6016024200000000E+01  H   1.4044821258672710E-01   0.0000000000000000E+00  -1.3544933313577805E+00  -1.0804297086610453E+00   1.3245519362161645E-01
atom   3.0843355990000003E+01   1.2163252500000000E+01   2.8494392389999998E+01  O  -2.2687630676711493E-01   0.0000000000000000E+00  -1.8770807667178611E+00   1.5161114871814569E+00  -1.7759384819783683E+00
atom   3.1594000559999998E+01   1.1261363700000000E+01   2.9975673110000002E+01  H   1.2746718624629116E-01   0.0000000000000000E+00   1.0128711455159569E+00  -1.7463342991784998E+00   3.1647791895776010E+00
atom   3.1567342190000002E+01   1.3905339999999999E+01   2.8384640869999998E+01  H   1.3392867473732886E-01   0.0000000000000000E+00  -1.0596456628857138E+00   2.8667749293458539E-01  -5.9487305161331316E-01
atom   2.5192628899999999E+01   1.0659943199999999E+01   2.2740650600000002E+01  O  -2.7932991555263498E-01   0.0000000000000000E+00  -4.8272279372996207E-01   2.0721181026605180E+00   3.0020359402632204E+00
atom   2.6129249000000002E+01   9.0689941300000001E+00   2.2337303700000000E+01  H   1.2925311059997957E-01   0.0000000000000000E+00   5.2658429925429484E-01  -2.1136299554103939E+00  -1.0602255662501299E+00
atom   2.4334105500000003E+01   1.1297663399999998E+01   2.1182665900000000E+01  H   1.3579253615249426E-01   0.0000000000000000E+00  -1.5820699485858972E-01  -5.3362640823979113E-01  -1.4434832353036031E+00
atom   2.3577298499999998E+01   3.1048604810000000E+01   3.1134916160000000E+01  O  -2.5732498711662843E-01   0.0000000000000000E+00  -5.2781350999631127E-01  -1.8137087657869873E+00  -1.8890412274445454E+00
atom   2.2542114099999999E+01   3.2627506900000000E+01   3.1054113359999999E+01  H   1.4468326256619560E-01   0.0000000000000000E+00  -2.3287733195464286E-01   9.4326429678595836E-01   5.1839809928575409E-01
atom   2.4986142300000001E+01   3.1281766780000002E+01   3.2372597960000000E+01  H   1.4318388651246020E-01   0.0000000000000000E+00   7.8133078766677067E-01   1.1428960276867532E+00   1.2120154690129661E+00
atom   1.2743292599999998E+00   3.1637135450000002E+01   1.1274429300000000E+01  O  -2.2430986608110826E-01   0.0000000000000000E+00  -1.3516662589069728E+00   6.7855431658976584E-01  -8.2538706637146986E-01
atom   2.3814442100000002E+00   3.3037698409999997E+01   1.1893930599999999E+01  H   1.2828656403963398E-01   0.0000000000000000E+00   1.4606896688125484E+00   7.3633844285516570E-01   1.2895966014237112E+00
atom   1.7378677399999998E-01   3.2275312970000002E+01   9.8770731499999975E+00  H   1.3667864119905754E-01   0.0000000000000000E+00  -1.0710029502342429E+00  -2.5253460154385459E+00   1.9359591442834667E+00
atom   1.9087983900000005E+01   9.2062071499999991E+00   1.3209104399999999E+01  O  -2.1364036167343936E-01   0.0000000000000000E+00  -1.9645148832701154E-01   1.7189467310369915E+00   4.7472235092599275E+00
atom   1.9152366800000003E+01   9.5094590599999993E+00   1.5073226599999998E+01  H   1.1270636086369794E-01   0.0000000000000000E+00   5.5615870112818554E-03  -1.6633914697178425E+00  -4.9492810542086954E+00
atom   2.0698276199999999E+01   8.3922737600000001E+00   1.2647373900000000E+01  H   1.1623505350140904E-01   0.0000000000000000E+00   7.5943612210771994E-01  -1.0979635037833333E+00  -1.1717818070596810E+00
atom   1.6658066300000002E+01   9.0892841200000003E+00   2.4035228300000000E+01  O  -2.5634943575263996E-01   0.0000000000000000E+00   2.4468951035290405E-02  -5.7497182895149179E-01  -2.0052776771188587E+00
atom   1.7933251599999998E+01   9.4938423600000004E+00   2.2700575199999999E+01  H   1.3339245065497035E-01   0.0000000000000000E+00  -1.0834316550835046E+00   2.7810118428583330E-01   2.3625354969852275E+00
atom   1.6421515999999997E+01   1.0591888500000000E+01   2.5156516199999999E+01  H   1.3524253837690148E-01   0.0000000000000000E+00  -3.1173993084212209E-01   1.9307693066987237E+00   7.0525585129766033E-01
atom   2.1720708699999999E+01   5.4108263799999996E+00   1.7686402300000001E+01  O  -2.6198803083701316E-01   0.0000000000000000E+00  -1.6903976178332918E+00  -2.0739877491390954E+00  -1.4951066250766305E+00
atom   2.1674115700000002E+01   3.9276067899999996E+00   1.8856509400000000E+01  H   1.0450277445225770E-01   0.0000000000000000E+00   2.4616615746574771E-01   1.2037716885617109E+00   5.3703706211665947E-01
atom   2.2583387600000002E+01   6.8594469699999996E+00   1.8539834700000000E+01  H   1.3582982465403778E-01   0.0000000000000000E+00   1.5745957268537110E+00   1.7950095319998505E+00   1.5531042004753113E+00
atom   3.2669577869999998E+01   2.2394074900000000E+01   3.2437804849999999E+01  O  -2.7581244203252647E-01   0.0000000000000000E+00   2.0589901970494711E+00   4.3591825868095393E+00   6.7158967072432252E-01
atom   3.4074026109999998E+01   2.3616383700000004E+01   3.2114465149999994E+01  H   1.0851426582017311E-01   0.0000000000000000E+00  -1.2393696765283229E+00  -3.2620948166899426E+00  -1.5487975118575532E+00
atom   3.2996332310000000E+01   2.0793522199999998E+01   3.1487790390000001E+01  H   1.4312849411430331E-01   0.0000000000000000E+00   7.2664962327204075E-01  -4.2701732584129315E-01  -7.2274416460463109E-01
atom   1.4821235399999997E+00   3.5657960499999994E+00   3.4366689890000004E+01  O  -2.5715047502084531E-01   0.0000000000000000E+00  -7.5361815388166875E-01   2.9281570134970760E+00  -2.5520952839861183E-01
atom   7.0035896099999995E-01   2.2052102400000000E+00   3.5419645289999998E+01  H   1.2537467698593999E-01   0.0000000000000000E+00  -2.0318479593785335E+00  -1.6227955278266648E+00   2.0481350797859963E+00
atom   2.8801618300000000E+00   2.8331586799999999E+00   3.3327555939999996E+01  H   8.8371116442566608E-02   0.0000000000000000E+00   8.8482937137038542E-01  -7.2512451924148180E-01  -6.8711060352270781E-01
atom   2.7605482219999999E+01   1.9151151700000000E+01   1.8528989599999999E+01  O  -2.2510236680896903E-01   0.0000000000000000E+00   4.0474177888566700E+00   5.5308148983653516E-01   2.5381905646730845E+00
atom   2.8489824920000000E+01   1.7764361099999999E+01   1.7598375099999998E+01  H   1.2707691847061264E-01   0.0000000000000000E+00  -9.0289885793796398E-01  -1.4575552572991828E+00  -7.4865849801047291E-01
atom   2.8844942249999999E+01   2.0064753100000004E+01   1.9624579200000003E+01  H   1.2968680278677985E-01   0.0000000000000000E+00  -3.6872302408627684E+00  -1.2742526460911829E+00  -2.3384529605020026E+00
atom   6.8918236499999992E+00   1.0158808600000000E+01   2.1515221799999999E+01  O  -1.9419883675617133E-01   0.0000000000000000E+00  -1.5724059734299964E+00   4.6725856429002299E-01  -1.1015159087557846E+00
atom   7.0683448599999990E+00   1.1556104299999999E+01   2.2775170299999999E+01  H   1.2497456870502642E-01   0.0000000000000000E+00   2.5220717883317995E-01   1.4770526066643455E+00   8.6923688840488278E-01
atom   5.1710050200000000E+00   9.3918349499999998E+00   2.1662185800000003E+01  H   1.5618595515534420E-01   0.0000000000000000E+00  -8.5046922106518841E-01  -9.8215144169610613E-01  -5.9701378218184920E-01
atom   2.8733161169999999E+01   2.8208493830000002E+01   3.4400268429999997E+01  O  -2.8632679659553739E-01   0.0000000000000000E+00  -1.8718043198970484E+00   2.4506088243277721E-01  -7.7343830420795479E-01
atom   3.0550202770000002E+01   2.8298694240000000E+01   3.4911433680000002E+01  H   1.5091134333771983E-01   0.0000000000000000E+00   1.6278418737259110E+00  -1.1094793635853110E-01   5.7189352181355380E-01
atom   2.7845360279999998E+01   2.6916503199999998E+01   3.5455557650000003E+01  H   1.1452191174045490E-01   0.0000000000000000E+00   2.0632985071017196E-01   6.0703360873331513E-01   1.0723533699415824E+00
atom   2.2378936300000003E+01   1.8197212300000001E+00   2.4234673799999996E+01  O  -2.4298325421952219E-01   0.0000000000000000E+00   8.1296412852923461E-01   1.0571466526347726E+00   2.3135559248142736E+00
atom   2.2791815000000000E+01   1.9992244200000000E+00   2.2399360400000003E+01  H   1.2164469506302597E-01   0.0000000000000000E+00   7.4261525133459416E-01   7.0225044236196943E-01  -2.0833898597852700E+00
atom   2.0937957699999998E+01   6.1473736000000001E-01   2.4441198199999999E+01  H   1.3669287080753534E-01   0.0000000000000000E+00  -1.6207853473200897E+00  -1.6027903954754155E+00   2.8988694593446424E-01
atom   3.2010382810000003E+01   7.9779720899999997E+00   1.1057447099999999E+01  O  -2.3494042783671359E-01   0.0000000000000000E+00  -1.7049364358074339E+00   2.7303275660135566E-02  -7.8431815683345563E-01
atom   3.2759347420000005E+01   6.9931847799999991E+00   1.2485842000000000E+01  H   1.4496435085106196E-01   0.0000000000000000E+00   1.1123625185177051E+00  -1.2947756105193471E+00   1.5503657654740777E+00
atom   3.3384665360000000E+01   8.8802501800000009E+00   1.0125617499999999E+01  H   1.1056202869532650E-01   0.0000000000000000E+00   1.1682818571625406E+00   1.2148001673011111E+00  -1.2471975141968659E+00
atom   1.2056874100000000E+01   1.3503960299999997E+01   3.3424328819999999E+01  O  -2.6695197382298347E-01   0.0000000000000000E+00  -9.9003137332815649E-01  -2.6330258575950896E+00   1.3117558368207693E-01
atom   1.2481293399999998E+01   1.4885584399999999E+01   3.2206935119999997E+01  H   1.3801308398933651E-01   0.0000000000000000E+00   3.5095670803356160E-01   2.0876010998815651E+00  -3.3836968461884859E-01
atom   1.2088279499999999E+01   1.4185569399999999E+01   3.5186568360000003E+01  H   1.3579103127040554E-01   0.0000000000000000E+00   4.9415861164673830E-01   1.3557935490648889E+00   8.2731881723511180E-01
atom   1.1951125100000001E+01   1.0338185200000000E+01   1.1906886600000000E+01  O  -2.5774682274834632E-01   0.0000000000000000E+00   5.0528119789178638E-01  -2.3549706274463937E+00  -1.8890497959821675E+00
atom   1.1649524799999998E+01   1.1559811900000000E+01   1.3316756399999997E+01  H   1.3519751336101382E-01   0.0000000000000000E+00  -2.9155766609676703E-01   1.7839710671643734E+00   2.4129111058480799E+00
atom   1.1028328300000000E+01   1.0917796399999999E+01   1.0363008699999998E+01  H   1.2250023586882916E-01   0.0000000000000000E+00  -4.1812685564569807E-01   3.7977005930202479E-01   5.5022458758144002E-02
atom   2.3484167200000005E+01   2.2707742899999999E+00   3.2717225429999999E+01  O  -3.0280160479503637E-01   0.0000000000000000E+00  -2.9116126294358646E+00  -6.7972763989592100E-01   5.7294464833887437E-01
atom   2.4983645900000003E+01   1.1776886599999998E+00   3.2359740259999995E+01  H   1.2288284835807076E-01   0.0000000000000000E+00   1.3364553559232080E+00   7.7946311088036502E-01  -1.3523562815534795E-01
atom   2.3988024799999998E+01   4.0884621699999997E+00   3.2602307400000001E+01  H   1.3988662921379347E-01   0.0000000000000000E+00   1.3377460006778770E+00   3.0017480663462587E-01  -6.8353079147431683E-01
atom   2.3266552000000001E+01   1.7049239600000000E+01   1.0204683599999997E+01  O  -2.5500922062303066E-01   0.0000000000000000E+00   1.1543445887702077E-01   2.1574776668557747E+00  -1.2729060003758448E+00
atom   2.3294529399999998E+01   1.6549567600000000E+01   1.2026937100000000E+01  H   1.1451038440300079E-01   0.0000000000000000E+00  -1.6910720474717440E+00  -1.0665284099933423E+00   3.6212686730978199E+00
atom   2.4468977100000000E+01   1.5961014300000000E+01   9.2346305199999978E+00  H   1.3905844036317599E-01   0.0000000000000000E+00   3.6863308841684950E-01  -3.2825143800496337E-01  -1.4483097255182866E+00
atom   3.5160949340000002E+01   1.1135507900000000E+01   7.0086068299999988E+00  O  -1.6745879234619876E-01   0.0000000000000000E+00  -5.5882035348595416E-01  -2.8953638908528456E-01   1.7909855206242755E+00
atom   3.5850928039999999E+01   9.5137279499999980E+00   7.6903879000000002E+00  H   1.0754464139036467E-01   0.0000000000000000E+00   1.1232043774476128E+00   1.9468876085610451E+00   8.1647228855168263E-01
atom   3.5229960249999998E+01   1.2463320200000000E+01   8.3514462199999979E+00  H   7.0083740523962948E-02   0.0000000000000000E+00  -9.1657016354481324E-01  -2.5740039682568217E+00  -2.5757276767534041E+00
atom   1.4858304300000000E+01   5.0407575299999987E+00   1.5385507699999998E+01  O  -2.9024567645409216E-01   0.0000000000000000E+00   1.0931754032384325E-01   5.6399966534307655E-01   1.1024856081590202E+00
atom   1.4873473100000000E+01   6.5863513100000004E+00   1.6472695500000000E+01  H   1.2374889219482614E-01   0.0000000000000000E+00  -6.7706671354597414E-01  -8.0424836225020044E-03  -1.1726973629203012E+00
atom   1.4290923500000000E+01   5.5019376400000004E+00   1.3642964700000000E+01  H   1.1826293297793333E-01   0.0000000000000000E+00  -3.3133420742483329E-02   3.9057659331076178E-01  -4.2837259593070476E-01
atom   3.0800013230000001E+01   8.5965323599999994E+00   1.8700510599999998E+01  O  -2.5204643075787114E-01   0.0000000000000000E+00  -6.5024776569753417E-01   3.7414576076142309E-01   1.4651091388557740E+00
atom   2.9433008019999999E+01   9.4957377599999990E+00   1.7755018300000000E+01  H   1.3270363177221831E-01   0.0000000000000000E+00   7.0144906299581278E-01  -5.7534324699776684E-01  -4.3098306031398442E-01
atom   3.1987235560000002E+01   7.7872023499999994E+00   1.7473008799999999E+01  H   1.4748088109709617E-01   0.0000000000000000E+00  -1.0861757731172006E+00   6.0646585627162242E-01  -1.0109822145814971E+00
atom   1.7589880799999996E+01   3.4518109859999996E+01   2.3746243800000002E+01  O  -1.9424155924900285E-01   0.0000000000000000E+00   8.1145971610092821E-02   6.9385101862133713E-01   3.7031644665339281E+00
atom   1.7904644900000001E+01   3.3525168389999997E+01   2.5322965199999999E+01  H   1.0529324996619209E-01   0.0000000000000000E+00  -3.6350929955195521E-01   4.2379555547386953E+00  -2.7208800223976546E+00
atom   1.6382118999999999E+01   3.3576260910000002E+01   2.2639312200000003E+01  H   1.2883331998539291E-01   0.0000000000000000E+00  -1.3600593357824302E+00  -1.3646000736711574E+00  -1.9270443526224097E+00
atom   2.6376935400000001E+01   3.7229984027699999E+01   2.9855839899999994E+00  O  -2.6018672967610279E-01   0.0000000000000000E+00   1.8610969838118050E+00  -4.8424266211405603E-01  -2.9674366043351197E-01
atom   2.8124412360000001E+01   3.6243057500000002E-02   2.2722255999999996E+00  H   1.1068384476321821E-01   0.0000000000000000E+00  -1.5814484724312896E+00  -1.8320513910090697E-01   6.8514380738111813E-01
atom   2.5136923500000002E+01   3.6971805863999997E+01   1.5831653099999998E+00  H   1.3239262392942844E-01   0.0000000000000000E+00  -1.6090675213036958E+00  -2.7170073349745366E-01  -1.0081871500946868E+00
atom   5.2662812299999988E+00   3.1213131929999999E+01   4.1803141999999998E+00  O  -2.4014041944901923E-01   0.0000000000000000E+00   1.9983843367888001E+00   1.7240315767846250E+00  -1.1977013751849668E+00
atom   4.3542994000000004E+00   2.9741481240000002E+01   4.9376786399999997E+00  H   1.4754433809581249E-01   0.0000000000000000E+00  -1.3680290827702546E+00  -1.0717440777212055E+00   8.3947690747325554E-01
atom   4.4136632499999999E+00   3.2817605789999995E+01   4.6997073199999990E+00  H   1.1584707714972295E-01   0.0000000000000000E+00  -9.0490669291881709E-01  -2.8282008588133616E-02   3.1250859014564641E-01
atom   9.7199159700000006E+00   1.8532084999999999E+01   3.1195888170000000E+01  O  -2.1652775766086624E-01   0.0000000000000000E+00  -1.0671061862627123E+00  -2.8066454539001278E+00   1.0304620860486871E+00
atom   1.1115270799999998E+01   1.9513803400000000E+01   3.2008566790000003E+01  H   1.4611808822545186E-01   0.0000000000000000E+00   3.0069417574342325E+00   7.5073477029627766E-01   1.5062817478976981E-01
atom   9.0533320799999988E+00   1.7254751099999996E+01   3.2418652479999999E+01  H   1.1980001626840063E-01   0.0000000000000000E+00  -1.4824211027210141E+00   3.0635932438385107E+00  -3.1411790511923128E+00
atom   2.2411594500000003E+01   6.4665596799999996E+00   1.3722416399999999E+00  O  -2.7679747682860301E-01   0.0000000000000000E+00  -2.1334142339892455E+00   1.8184514521917954E+00   2.3767870425790800E+00
atom   2.1473991800000000E+01   8.0841916999999999E+00   1.6465353899999997E+00  H   9.8655355274166218E-02   0.0000000000000000E+00   1.9889919510162883E+00  -8.7124154384086439E-01  -1.7500505015719048E+00
atom   2.3165606600000004E+01   6.4615953700000004E+00   3.6925466000000000E+01  H   1.4057016974247660E-01   0.0000000000000000E+00   3.0376948045619045E-01   3.8181359817666488E-01  -1.5555445610204834E+00
atom   2.2010031500000000E+01   3.0336435059999999E+01   8.1784304599999995E+00  O  -2.4256752367302864E-01   0.0000000000000000E+00   4.3871237820322060E+00   2.0567094470730343E+00   1.1327203773141952E+00