begin
comment Values for ['energy', 'charge', 'force of atom'] were set to default values
lattice   1.3443888628000000E+01   0.0000000000000000E+00   0.0000000000000000E+00
lattice   0.0000000000000000E+00   1.3443888628000000E+01   0.0000000000000000E+00
lattice   0.0000000000000000E+00   0.0000000000000000E+00   1.3443888628000000E+01
atom   1.0281570000000000E+00   6.8756146279999992E+00   8.4965726279999991E+00  O  -2.8256347534442394E-01   0.0000000000000000E+00  -2.9283692352115263E+00  -2.1942965040430695E-01  -7.8128583031086121E-02
atom   2.0441220000000002E+00   6.7232386279999998E+00   1.0082655627999999E+01  H   1.2277837277223855E-01   0.0000000000000000E+00   1.9482823532380507E+00   3.1792184330776235E-01   2.2469585801699852E+00
atom   2.0479959999999999E+00   7.7664106280000009E+00   7.1784396279999996E+00  H   1.2747526484297358E-01   0.0000000000000000E+00   8.9380603941331793E-01   2.7100055065674783E-01  -2.0117787682273802E-01
atom   1.1192644628000000E+01   5.0014000000000003E+00   2.3129659999999999E+00  O  -2.0320633594884582E-01   0.0000000000000000E+00   2.8271820248615240E+00   3.8199554621973880E-01   3.5845413797895835E+00
atom   1.0184262628000001E+01   4.6480459999999999E+00   7.5432200000000005E-01  H   1.5077528010356028E-01   0.0000000000000000E+00  -1.1936480532254552E+00  -2.3140105928612867E-01  -2.3175789249624752E+00
atom   1.2084808628000001E+01   6.6565360000000000E+00   2.1242049999999999E+00  H   1.0545961981723478E-01   0.0000000000000000E+00  -3.4603179700863103E+00  -1.3868476023525984E+00  -1.0545047365673061E+00
atom   7.9033536279999996E+00   3.0212699999999999E+00   6.9125696280000009E+00  O  -2.3518637803977813E-01   0.0000000000000000E+00   4.2372154470977669E-01   1.8073177424203288E-01   3.0951853714291844E-01
atom   8.8537476279999989E+00   1.9672839999999998E+00   5.6648090000000000E+00  H   1.1004800576876206E-01   0.0000000000000000E+00   7.7840436378832478E-02   5.2958376699306908E-01  -2.2524862715071485E+00
atom   7.7022636279999999E+00   2.0587849999999999E+00   8.5263396280000006E+00  H   1.2457842239861067E-01   0.0000000000000000E+00  -2.3265786214644388E-01   2.0210037813235607E-01   2.1477750389810897E+00
atom   7.8743726279999988E+00   1.0387881627999999E+01   1.1051255628000000E+01  O  -2.2058240732065956E-01   0.0000000000000000E+00  -3.4565727104575689E-01   2.5528939648646114E+00  -3.8700539207258222E+00
atom   9.2086816279999990E+00   9.1761326279999995E+00   1.1619012628000000E+01  H   1.2797577200732241E-01   0.0000000000000000E+00   1.5078420052350747E-01  -2.1634546570493454E+00   1.1018383816958270E+00
atom   8.1086836279999996E+00   1.0767815628000001E+01   9.2150046279999991E+00  H   1.1917909653994410E-01   0.0000000000000000E+00  -1.8331532626603048E-01  -1.1747870971878707E+00   6.7991269031499835E+00
atom   3.8907250000000002E+00   8.2707826279999992E+00   1.8582870000000000E+00  O  -2.6183165626861749E-01   0.0000000000000000E+00   7.0244269367983858E-01  -1.1111776866062637E+00   1.6022264684182443E+00
atom   3.6563539999999999E+00   7.5442296280000001E+00   1.2963000000000000E-01  H   1.2478853272527493E-01   0.0000000000000000E+00  -9.2733544280998526E-01   1.2708147351939285E+00  -2.1037967614413642E+00
atom   4.0430140000000003E+00   6.8683186279999999E+00   3.1156519999999999E+00  H   9.9154652510639180E-02   0.0000000000000000E+00   1.8655372292621097E-01   1.3721069236350780E+00  -8.0692036225339978E-02
atom   4.7885530000000003E+00   1.2039224627999999E+01   6.5503749999999998E+00  O  -2.7263628991795935E-01   0.0000000000000000E+00  -1.1292771081345108E+00  -9.0760280713822394E-01  -1.5762793800709740E-01
atom   4.6924869999999999E+00   1.1124599999999998E-01   5.4261629999999998E+00  H   1.1434733344402727E-01   0.0000000000000000E+00  -9.8293571178456843E-02   1.0082309420963453E+00  -5.8307946025373902E-01
atom   5.5979869999999998E+00   1.2520381627999999E+01   8.1887696280000011E+00  H   1.1263403257973484E-01   0.0000000000000000E+00  -5.8627648478079153E-01   3.6509413794346102E-01  -1.1572643025824929E-01
atom   4.8991110000000004E+00   3.3909980000000002E+00   1.3105727628000000E+01  O  -2.7372231339107428E-01   0.0000000000000000E+00   1.0579372843395085E+00   1.1643437983388070E+00   1.2704653330434790E+00
atom   4.0105050000000002E+00   2.4129309999999999E+00   1.1754866627999998E+01  H   1.3658196132808181E-01   0.0000000000000000E+00  -2.7108633263781412E+00  -1.3756498865725824E+00  -1.9441844331785387E+00
atom   3.6245479999999999E+00   4.2738459999999998E+00   7.4217699999999998E-01  H   9.0172983387061936E-02   0.0000000000000000E+00  -4.0507125991796944E-01  -1.6796036702909269E+00  -1.4731090864111782E-01
atom   1.1298731628000001E+01   1.2691991628000000E+01   4.4432619999999998E+00  O  -2.5637106920821656E-01   0.0000000000000000E+00  -2.8283675022934567E+00   1.2289852492197650E+00   4.1542682352061577E-01
atom   1.1360284628000000E+01   1.3169730628000000E+01   6.2705669999999998E+00  H   1.1847178479117913E-01   0.0000000000000000E+00   1.1556735718984914E+00  -7.1030210772562219E-01   1.8949900190596836E+00
atom   1.2995212628000001E+01   1.2061610628000000E+01   3.8995389999999999E+00  H   1.3767024849619425E-01   0.0000000000000000E+00   2.6903838305192367E+00  -9.4978647053313636E-01  -1.3294639818356677E+00
atom   1.2764696627999999E+01   1.5378200000000000E-01   1.0125363628000001E+01  O  -2.2955663167309948E-01   0.0000000000000000E+00  -1.6237528514361890E+00  -1.7798214425490955E+00  -1.0320891233855798E+00
atom   1.1249884628000000E+01   1.2710340000000000E+00   9.9575596280000003E+00  H   1.3433991100513273E-01   0.0000000000000000E+00   5.0306812661490385E-01   6.4606072642904910E-02   1.2035900324044681E-01
atom   8.4522900000000001E-01   1.2098420000000001E+00   1.0488610628000000E+01  H   1.3761295680984548E-01   0.0000000000000000E+00   2.3015420911979811E+00   1.6439986297320848E+00   8.3471087553758916E-01
atom   8.8003156279999999E+00   8.1706076280000008E+00   6.1612819999999999E+00  O  -2.3412971681479525E-01   0.0000000000000000E+00   4.7823813809165792E+00   4.5453029913715861E+00  -3.2129178691353069E+00
atom   7.4882556279999992E+00   6.9694036280000002E+00   6.7989826280000001E+00  H   1.1415705913922836E-01   0.0000000000000000E+00  -5.1160186352989925E+00  -5.4134409660054734E+00   1.5484060579498757E+00
atom   8.7161336279999979E+00   9.7785886279999996E+00   7.1504036279999994E+00  H   1.1034962117814637E-01   0.0000000000000000E+00   1.2454296150285611E+00  -3.2682486247550602E-01  -2.3874749634340637E+00
atom   3.1354829999999998E+00   3.7303289999999998E+00   4.8504040000000002E+00  O  -2.2006091505768430E-01   0.0000000000000000E+00  -1.2832754207323978E+00  -1.4767181813664836E+00  -1.6544059920266059E+00
atom   2.5813579999999998E+00   2.1819250000000001E+00   3.9195639999999994E+00  H   1.3641844939732595E-01   0.0000000000000000E+00  -1.8176714669371274E+00  -3.7272692203761654E-01  -2.5341845334408836E-01
atom   4.8735999999999997E+00   4.2146619999999997E+00   4.2887670000000000E+00  H   1.1534057032122745E-01   0.0000000000000000E+00   2.8905795806354817E+00   1.2490296651432349E+00   4.4489626141762684E-01
atom   1.2696753628000000E+01   9.5005796279999988E+00   1.3316218628000000E+01  O  -2.0590918634609703E-01   0.0000000000000000E+00   3.6313703894020638E-01  -2.9210646513595001E-01   7.7685508623495614E-01
atom   1.2096099628000001E+01   8.3233416279999997E+00   1.2230289999999999E+00  H   1.0721155781927215E-01   0.0000000000000000E+00   2.1821057837216054E+00  -8.1494640847712330E-01   1.1342821157055141E-02
atom   1.1423969628000000E+01   1.0874955628000000E+01   1.3066854628000000E+01  H   1.1823488614823414E-01   0.0000000000000000E+00   4.8731746833591910E-01   4.0378869734607514E+00  -3.3331890572564116E-01
energy  -9.1689613647168449E+02
charge   1.2212453270876722E-15
end
