begin
comment Values for ['energy', 'charge', 'force of atom'] were set to default values
lattice   2.3488727120000000E+01   0.0000000000000000E+00   0.0000000000000000E+00
lattice   0.0000000000000000E+00   2.3488727120000000E+01   0.0000000000000000E+00
lattice   0.0000000000000000E+00   0.0000000000000000E+00   2.3488727120000000E+01
atom   2.0304918120000000E+01   1.2036463120000002E+01   1.9531799999999999E-01  O  -1.9879263175625675E-01   0.0000000000000000E+00  -6.8284873995153164E-02   1.5787274386548209E+00   6.4505071874474607E-01
atom   1.9700255120000001E+01   1.0286042000000000E+01   5.7179300000000000E-01  H   1.0201390041329145E-01   0.0000000000000000E+00  -7.0328871677551885E-01  -2.0069697316267390E+00  -1.2542986145350115E+00
atom   2.1009248119999999E+01   1.2811504120000000E+01   1.7683070000000001E+00  H   1.1414068043640804E-01   0.0000000000000000E+00   9.8942502341395033E-01  -1.7146032835883098E+00  -3.9278105791948277E+00
atom   1.8042954119999997E+01   2.2429598120000001E+01   2.3451588120000000E+01  O  -2.0911191113438887E-01   0.0000000000000000E+00  -1.2143984940007395E+00   7.9058512573662709E-01  -9.7143080942182902E-01
atom   1.7360224120000002E+01   2.0772076120000001E+01   2.2853624119999999E+01  H   1.2957589415459830E-01   0.0000000000000000E+00  -1.5848519803826953E+00  -2.2342148090456218E+00   4.9496382307307757E-01
atom   1.9389503120000001E+01   2.3021133119999998E+01   2.2265014120000000E+01  H   1.5514246013031521E-01   0.0000000000000000E+00   1.6398874061501056E+00   1.7091336313622123E+00  -1.1145031748157310E+00
atom   1.9462741120000000E+01   2.0739459999999998E+00   1.0249672000000000E+01  O  -2.4484970763208769E-01   0.0000000000000000E+00   9.4305945523707968E-01   1.1936042346493123E+00   1.0266301185118702E+00
atom   1.8372006119999998E+01   7.7177700000000005E-01   9.4215920000000004E+00  H   1.2705239467014318E-01   0.0000000000000000E+00  -9.8535753349065469E-01  -2.7121561171308075E+00   7.9200464867444098E-01
atom   1.9313683120000000E+01   3.7084700000000002E+00   9.3130959999999998E+00  H   1.0665589300684451E-01   0.0000000000000000E+00   4.5637964573337714E-01  -1.8173488616107927E+00   4.8649392828231802E-01
atom   2.1432401120000002E+01   1.7878873120000002E+01   1.8130218119999999E+01  O  -3.0900693721588052E-01   0.0000000000000000E+00  -1.3170903976451349E+00   2.9619635578321875E+00  -3.0412342709621085E+00
atom   2.2548154120000000E+01   1.6763768120000002E+01   1.9170746120000000E+01  H   9.3483567904267428E-02   0.0000000000000000E+00   1.4737045447503363E+00  -2.8526161025625858E+00   3.6218955369736796E+00
atom   1.9686842120000001E+01   1.7875235119999999E+01   1.8854149119999999E+01  H   1.4492626406377870E-01   0.0000000000000000E+00   1.2140010502313068E+00  -1.0313956758266110E+00   6.3141591698450350E-01
atom   1.4613290120000000E+01   3.4009399999999999E+00   1.5759029119999999E+01  O  -2.7139230220147459E-01   0.0000000000000000E+00   4.1220647445651577E-02  -4.9175652571729250E-01  -2.3915353286600488E-01
atom   1.3534810120000000E+01   2.8324080000000000E+00   1.7202884120000000E+01  H   1.1789246793331531E-01   0.0000000000000000E+00   1.7426301488556220E-01  -5.1371342404364403E-02  -4.9079307878977702E-01
atom   1.6277749119999999E+01   2.5087079999999999E+00   1.5826587120000003E+01  H   1.1039928038424643E-01   0.0000000000000000E+00  -1.7918264355676597E-01   1.0877887070292145E+00   4.1132939714963435E-01
atom   1.5712555120000001E+01   8.9952930000000002E+00   1.6714936120000001E+01  O  -2.5782321513492956E-01   0.0000000000000000E+00  -1.3735398760173876E+00  -1.9409460460791437E+00   2.3417009431244158E+00
atom   1.4770154120000001E+01   9.7323880000000003E+00   1.5252188120000000E+01  H   1.1816092134585110E-01   0.0000000000000000E+00  -1.2038976940159436E+00   7.2550450060399674E-01  -1.5349366783290692E+00
atom   1.7569825120000001E+01   9.0877780000000001E+00   1.6378693120000001E+01  H   1.2567909592068416E-01   0.0000000000000000E+00   8.9254425135837379E-01   6.0852588815104547E-01  -8.0445985671898690E-01
atom   1.8849124120000003E+01   1.3219122119999998E+01   1.6356680120000000E+01  O  -2.7323967234200808E-01   0.0000000000000000E+00  -1.2388670632381262E+00  -2.0125313898933608E+00   2.3820013866126470E+00
atom   1.7889436119999999E+01   1.3965834119999998E+01   1.4910138120000001E+01  H   1.3509036258994245E-01   0.0000000000000000E+00   4.6286896384696719E-01   8.3743407888708121E-01  -1.8968245813785178E+00
atom   2.0651201120000000E+01   1.3782003120000002E+01   1.6274526120000001E+01  H   1.4207964675762452E-01   0.0000000000000000E+00   1.0671138744630599E+00   1.3503716149640277E+00  -9.7484373777999178E-01
atom   6.2434979999999989E+00   1.1834809119999999E+01   9.2146489999999996E+00  O  -2.3859214269476542E-01   0.0000000000000000E+00   1.1630849829738916E+00  -4.1499945700224578E-01   1.6264329863693128E+00
atom   5.1173880000000000E+00   1.2339356120000000E+01   1.0645863000000000E+01  H   1.1831177454675951E-01   0.0000000000000000E+00  -1.4994805403126403E+00   1.2704469303683350E+00   8.0505620348973972E-01
atom   7.6629940000000003E+00   1.0775380999999999E+01   9.8733350000000009E+00  H   1.3500383820536702E-01   0.0000000000000000E+00  -7.1322799240935167E-02  -1.2546731795137156E-01  -9.7026947890462556E-01
atom   1.1668059000000000E+01   8.4650429999999997E+00   6.4053649999999998E+00  O  -2.2936566961327359E-01   0.0000000000000000E+00   5.9843023564584807E-01  -6.1701623602097100E-01  -9.6961642736729337E-01
atom   1.3289344120000001E+01   9.3894099999999998E+00   6.7024840000000001E+00  H   1.4394454881677721E-01   0.0000000000000000E+00   2.4523172086581457E+00   1.0434260434667875E+00   3.7972425015390665E-01
atom   1.0493207000000000E+01   9.5585349999999991E+00   5.4078330000000001E+00  H   1.2793786899830339E-01   0.0000000000000000E+00  -1.5065976679868447E+00  -7.3946525500356075E-01  -1.9038152036214371E+00
atom   1.8843106119999998E+01   1.0957140000000001E+01   5.4246119999999998E+00  O  -2.5776361362851707E-01   0.0000000000000000E+00   1.7441121122481307E+00  -2.0618295215504521E+00   9.5489338181903205E-01
atom   2.0114311120000000E+01   1.0787292000000001E+01   4.0367179999999996E+00  H   9.2055041176627384E-02   0.0000000000000000E+00  -1.5995957343825151E+00  -4.6365050478291564E-01   1.6335088365876305E+00
atom   1.7350568120000002E+01   1.1930998119999998E+01   4.7960099999999999E+00  H   1.5693193562532187E-01   0.0000000000000000E+00  -1.3780858994648313E+00   1.3996064744231844E+00  -1.0149310621992862E+00
atom   1.4942858120000002E+01   5.1116900000000003E+00   2.5105010000000001E+00  O  -2.7458840645197119E-01   0.0000000000000000E+00   4.2594174125819845E-01   1.5596133533774377E+00   2.2410739671965740E+00
atom   1.4911423120000000E+01   3.7666249999999999E+00   1.1835220000000000E+00  H   1.3415832438560671E-01   0.0000000000000000E+00  -3.3505425710793935E-01  -2.2688875244352920E+00  -1.8701396085183546E+00
atom   1.5954266119999998E+01   4.5130840000000001E+00   3.9902949999999997E+00  H   1.2824072777471571E-01   0.0000000000000000E+00  -1.5961650496126331E-01  -2.4644964763950405E-01  -2.6718568872246447E-02
atom   2.5357859999999999E+00   1.8813681120000002E+01   5.5273370000000002E+00  O  -2.4738750302708334E-01   0.0000000000000000E+00   2.8835995604413380E+00  -6.3175340839597478E+00   2.0995440706736419E+00
atom   3.9731740000000002E+00   1.8064516120000000E+01   6.4987959999999996E+00  H   1.1318447819463566E-01   0.0000000000000000E+00  -4.4706474242907801E-01   3.7464557469879800E+00  -3.5049196467392814E+00
atom   2.6844939999999999E+00   2.0697532120000002E+01   5.5348360000000003E+00  H   1.1080627111089701E-01   0.0000000000000000E+00   1.0461435780574645E-01   4.2024571594950988E+00   1.1289825482368316E+00
atom   8.2437020000000008E+00   2.7943380000000002E+00   2.9763489999999999E+00  O  -2.5746625764159481E-01   0.0000000000000000E+00   3.5617338185525909E+00   3.6441699138211797E-01  -1.5069572451108870E+00
atom   8.3144109999999998E+00   1.2267159999999999E+00   4.0292589999999997E+00  H   1.5400761009472477E-01   0.0000000000000000E+00  -2.9136336735162610E-01  -8.9228539798667028E-01   5.3730100078671250E-01
atom   6.4616730000000002E+00   3.4177149999999998E+00   2.8936660000000001E+00  H   1.3412554831654042E-01   0.0000000000000000E+00  -1.6624318375556149E+00  -7.3052907151926549E-01   4.4152460634485313E-01
atom   7.9283989999999998E+00   1.0932213000000001E+01   2.0175209120000002E+01  O  -3.0111652005382572E-01   0.0000000000000000E+00   8.1174293339227555E-01   3.4587723516937934E+00  -4.0490249773068019E+00
atom   8.5027749999999997E+00   9.6716259999999998E+00   1.8889878119999999E+01  H   1.1671455355495404E-01   0.0000000000000000E+00   2.5387899296728511E-01  -7.9212178474476780E-01   3.4092479325175140E-01
atom   7.5230279999999992E+00   1.0042726999999999E+01   2.1792477120000001E+01  H   8.7573603621544288E-02   0.0000000000000000E+00  -2.4847783516104191E-01  -1.5331863702701645E+00   1.7138230071057343E+00
atom   1.1937283120000000E+01   1.8343950120000002E+01   3.0027919999999995E+00  O  -2.5817164356055705E-01   0.0000000000000000E+00   6.9240479320405468E-01  -2.5170511363026771E-01  -2.0654483651901101E-01
atom   1.2329488120000002E+01   1.9508633119999999E+01   1.5672590000000000E+00  H   1.3621474187003277E-01   0.0000000000000000E+00   2.2798472739672074E-01   5.0611931631849905E-01  -5.7358845768137989E-01
atom   1.3306015120000000E+01   1.8460544119999998E+01   4.3004990000000003E+00  H   1.3337840015963134E-01   0.0000000000000000E+00   4.2169176623097926E-01   1.3309794195171837E-01   3.1108361331676204E-01
atom   8.3530709999999999E+00   1.8640268119999998E+01   7.5132729999999999E+00  O  -2.1877023569532111E-01   0.0000000000000000E+00  -1.5671530534542726E+00  -1.4695164168930701E+00  -2.5041821743935961E+00
atom   6.6847629999999993E+00   1.8571512120000001E+01   6.6283519999999996E+00  H   1.1163629421373891E-01   0.0000000000000000E+00  -2.3110881804771801E+00  -1.0299028317945713E+00   2.0556476371889216E+00
atom   8.8673149999999996E+00   2.0443365119999999E+01   7.7487649999999988E+00  H   1.4195843012316167E-01   0.0000000000000000E+00   2.1069777344833303E+00   3.1160611448460083E+00   1.0310039716727297E+00
atom   4.2541339999999996E+00   1.6318923119999997E+01   1.8067065119999999E+01  O  -2.4838859456674203E-01   0.0000000000000000E+00  -1.8723879241589385E+00   1.3726434382186812E+00  -3.5996978555438902E-01
atom   4.9548110000000003E+00   1.6447279120000001E+01   1.6316738120000000E+01  H   1.1647723882934660E-01   0.0000000000000000E+00   2.5844773032037022E-01   5.9687535163978556E-01  -5.0533054292661339E-01
atom   5.1900570000000004E+00   1.4984941119999998E+01   1.9023935120000001E+01  H   1.3917177603096953E-01   0.0000000000000000E+00   9.9272595336725977E-01  -1.9789101171447836E+00   1.5174036465674645E+00
atom   3.9820839999999995E+00   2.0680328119999999E+01   1.5234267119999998E+01  O  -2.8790697883333949E-01   0.0000000000000000E+00  -1.1714866613981016E+00   2.7177898633551445E-01  -9.7324664789569870E-01
atom   2.4937339999999999E+00   1.9867842119999999E+01   1.6068379119999999E+01  H   1.3827474371902115E-01   0.0000000000000000E+00   3.0853301715669806E-01  -4.3116137464570065E-01   6.4179953258976449E-02
atom   5.5027860000000004E+00   1.9579031120000000E+01   1.5447984120000001E+01  H   1.1250645359562232E-01   0.0000000000000000E+00  -2.8000649360371521E-01  -1.0584407212346000E-01   6.5446272407673212E-01
atom   1.1963953119999999E+01   1.2578684120000000E+01   1.4218000000000000E+00  O  -2.7423607521977472E-01   0.0000000000000000E+00  -2.7558754740771829E-01  -3.8691691151728831E+00  -5.8539138192160911E-01
atom   1.2174799120000001E+01   1.3714755120000001E+01   2.3415217119999998E+01  H   1.1212178670295303E-01   0.0000000000000000E+00   4.4106774522431536E-01   1.7840354648554111E+00  -1.6096025519131005E+00
atom   1.1772652120000002E+01   1.3623578119999999E+01   2.9847029999999997E+00  H   1.2439671467978726E-01   0.0000000000000000E+00  -1.4830434422327810E-01   1.6369367009190443E+00   1.9065544009814028E+00
atom   3.2915869999999998E+00   2.2823698120000000E+01   2.3041828119999998E+01  O  -2.8485706789560555E-01   0.0000000000000000E+00   3.3345579816326998E+00   1.1685518347996131E+00   7.6187486781718383E-01
atom   1.9168229999999997E+00   2.3030300000000001E-01   2.2104026120000000E+01  H   1.3479654298336088E-01   0.0000000000000000E+00  -1.6011840107572850E+00   5.1789372576507497E-01  -5.1388920386317938E-01
atom   2.8089740000000001E+00   2.1013634119999999E+01   2.3290447120000000E+01  H   1.3973967429118117E-01   0.0000000000000000E+00  -9.7556027086668284E-01  -8.0440243672041856E-01  -4.0945912573601884E-01
atom   1.7472852119999999E+01   1.3293666119999997E+01   1.0319112000000001E+01  O  -2.8876220184964185E-01   0.0000000000000000E+00   1.7901082847473053E+00  -1.0657094949785586E+00   1.2414345782605436E+00
atom   1.9061386119999998E+01   1.4166916120000002E+01   9.7852020000000000E+00  H   1.2858293994526407E-01   0.0000000000000000E+00   7.0697368407221028E-01  -1.9443583988057450E-01  -2.0633056415895851E-01
atom   1.5982990120000000E+01   1.4183400120000000E+01   9.5709470000000003E+00  H   9.8383448528923695E-02   0.0000000000000000E+00  -2.6452590234516822E+00   1.8086802890252753E+00  -7.0721915367349897E-01
atom   1.4304924120000001E+01   1.7379603119999999E+01   9.7471999999999994E+00  O  -2.3611510584672446E-01   0.0000000000000000E+00   2.9325332192227513E+00  -2.2448684367091523E+00   9.9188452256426296E-01
atom   1.2769290120000001E+01   1.8380693120000000E+01   9.2881699999999991E+00  H   1.3414908962940958E-01   0.0000000000000000E+00  -2.7874208450524938E+00   1.9804509845080169E+00  -4.9897298425571235E-01
atom   1.4842412119999999E+01   1.7820800120000001E+01   1.1504333000000001E+01  H   1.3023184049317268E-01   0.0000000000000000E+00  -3.9950193936020806E-01  -8.4686807559863586E-01  -4.3150207551088787E-01
atom   9.6238329999999994E+00   1.2959360119999999E+01   1.4215867119999999E+01  O  -2.3252969388389377E-01   0.0000000000000000E+00  -3.2850700794663579E-01  -8.5083883492212010E-03   9.2902443247219857E-01
atom   1.1469531999999999E+01   1.3235810120000002E+01   1.3919158120000001E+01  H   1.4491719114095861E-01   0.0000000000000000E+00   1.6787028095896119E+00   1.6238769569563835E-01   8.1799476413426928E-02
atom   8.6634440000000001E+00   1.3377657120000000E+01   1.2643052120000000E+01  H   9.8102292468887631E-02   0.0000000000000000E+00  -3.7987764831893006E-01  -3.8402402359587962E-01  -1.4142332017582686E+00
atom   4.0741899999999998E-01   4.9563509999999997E+00   1.2037627119999998E+01  O  -2.5526200911916275E-01   0.0000000000000000E+00   3.3316379406182866E+00  -5.4705320561557369E-01   2.1968586703620505E+00
atom   2.2536685119999998E+01   5.3260719999999999E+00   1.0778095000000000E+01  H   1.0507087561625610E-01   0.0000000000000000E+00  -4.8859442049349573E+00   1.4433475377151355E+00  -1.5365864966154985E+00
atom   1.0006250000000001E+00   3.1754429999999996E+00   1.1819600120000000E+01  H   1.5892028280359385E-01   0.0000000000000000E+00   2.7053914368805032E-01  -1.1546108355831766E+00   1.0261069036771100E+00
atom   9.6876169999999995E+00   6.2742779999999989E+00   1.7194932120000001E+01  O  -2.3447721672055286E-01   0.0000000000000000E+00   1.4895940302688866E+00  -4.1251573802229142E+00   1.9968541484082463E+00
atom   1.0756535000000000E+01   4.9553929999999999E+00   1.8025005120000003E+01  H   1.1569545038955538E-01   0.0000000000000000E+00  -2.0760063567271820E+00   1.3675265838522022E+00   1.3589965226784664E+00
atom   1.0792676000000000E+01   7.4639160000000002E+00   1.6228146119999998E+01  H   1.3845633865750795E-01   0.0000000000000000E+00   1.7463316648664002E+00   3.0461226755209831E+00  -1.6087166956235308E+00
atom   1.3257257120000002E+01   2.3386738120000000E+01   4.6253430000000000E+00  O  -2.5432569697037738E-01   0.0000000000000000E+00   1.1839058031070386E+00  -4.8992095800787244E-01   8.9456173732505562E-01
atom   1.2219891120000000E+01   5.7586400000000004E-01   3.1986489999999996E+00  H   1.2543712592726014E-01   0.0000000000000000E+00  -1.0892430921031671E+00   6.7643613846101325E-01  -4.7873411801886406E-01
atom   1.2757651120000002E+01   7.5865499999999997E-01   6.2318160000000002E+00  H   1.1753941649500081E-01   0.0000000000000000E+00  -5.4438092437599028E-01  -2.2850447703089435E-01  -2.9477051342849536E-01
atom   1.1639929000000000E+01   2.3589600000000002E+00   2.1449042119999998E+01  O  -2.2402365658407622E-01   0.0000000000000000E+00   2.8139290082934951E+00   2.4437974351959197E+00  -3.6641309688593084E+00
atom   1.1688007000000001E+01   3.7931170000000001E+00   2.0219427119999999E+01  H   1.0988000723496261E-01   0.0000000000000000E+00  -1.8029480519045693E+00  -3.1345780013476250E+00  -2.4959062200677545E-01
atom   1.0230176000000000E+01   2.6299169999999998E+00   2.2677961120000003E+01  H   1.2642692721478188E-01   0.0000000000000000E+00  -2.9748742137609976E+00   4.4103460558285690E-01   2.9746808014213140E+00
atom   3.2611629999999994E+00   1.0341097000000000E+01   2.2298727119999999E+01  O  -2.6273799529210012E-01   0.0000000000000000E+00   7.9708700066013793E-01   5.5558525855485652E-01  -1.0365423549244208E+00
atom   1.6200089999999998E+00   1.0214183000000000E+01   2.3226936120000001E+01  H   1.3941783955188009E-01   0.0000000000000000E+00  -1.8188560957181423E+00   4.7157176045710797E-01   8.4200148572946854E-01
atom   4.6007350000000002E+00   1.0974562000000001E+01   2.3471474120000000E+01  H   1.2998123246196255E-01   0.0000000000000000E+00  -6.9314342125466566E-01   1.8018125463272264E-01   4.3529865224661769E-02
atom   1.5647559999999998E+00   5.3464549999999997E+00   7.0673740000000000E+00  O  -2.4367029758743389E-01   0.0000000000000000E+00   5.7948831167239456E-01  -4.0991216478947867E-01  -1.0196605946478841E+00
atom   1.6433460000000000E+00   5.0374450000000000E+00   8.9300069999999998E+00  H   9.8923659705874523E-02   0.0000000000000000E+00   1.4675148206530451E+00   3.0521343281384344E-01  -6.6104544642075280E-01
atom   3.3118020000000001E+00   5.3071409999999997E+00   6.3481040000000002E+00  H   1.1280749381197228E-01   0.0000000000000000E+00  -1.3359304863046975E+00  -3.5431917527717688E-01  -3.4652611675960711E-02
atom   1.3235799120000001E+01   3.6427570000000000E+00   9.4499860000000009E+00  O  -2.4048445548729955E-01   0.0000000000000000E+00   1.2733398687994366E+00   4.6860910599125805E-01   9.6654048014643515E-02
atom   1.4011582120000000E+01   5.3658089999999996E+00   9.4322320000000008E+00  H   1.2618600827743318E-01   0.0000000000000000E+00  -8.1984214915214015E-01   5.2210535523408630E-01  -4.5629202318925172E-02
atom   1.1922528119999999E+01   3.5572170000000001E+00   1.0806108000000000E+01  H   1.2709252076589508E-01   0.0000000000000000E+00  -1.8408429646571125E+00   2.5142068335541795E-01   4.8076006524881004E-01
atom   3.5947200000000001E+00   1.1086732000000000E+01   4.6438210000000000E+00  O  -2.3911214607393422E-01   0.0000000000000000E+00   1.1130118564423432E+00  -7.5241165464995374E-01  -1.8576935119291949E+00
atom   3.5184720000000000E+00   1.2004984120000001E+01   6.2937289999999999E+00  H   1.2085487338523718E-01   0.0000000000000000E+00  -4.6564553810725134E-01   4.5199369176219278E-02   5.9918737143873058E-01
atom   5.3841469999999996E+00   1.1024893000000000E+01   4.0395070000000004E+00  H   1.1432970790325545E-01   0.0000000000000000E+00  -1.5356701968734572E+00  -3.2586331654750028E-02  -4.2915711419071984E-01
atom   1.1590388000000001E+01   1.9209348120000001E+01   1.5202306119999998E+01  O  -2.5223593678294715E-01   0.0000000000000000E+00   8.8749240269019469E-01   7.1771165357799160E-01   4.5772867065350447E+00
atom   1.2446247120000001E+01   1.9656825120000001E+01   1.6826641120000001E+01  H   1.2157920532657671E-01   0.0000000000000000E+00  -9.4399025949955762E-01   2.7900713263321144E+00  -2.2979540687418272E+00
atom   1.2647024120000001E+01   1.7959823119999999E+01   1.4257096120000002E+01  H   1.2938590887683526E-01   0.0000000000000000E+00   9.2255280779389759E-01  -8.2725787875700674E-01  -1.4610941081587843E+00
atom   4.4812680000000000E+00   1.1471221999999999E+01   1.4451514120000002E+01  O  -2.5561223172115272E-01   0.0000000000000000E+00  -1.4889170858335612E+00   1.8596102572586199E+00  -1.8585272826939268E+00
atom   5.0047280000000001E+00   1.0065291999999999E+01   1.5600608120000002E+01  H   1.4675428773950053E-01   0.0000000000000000E+00   9.2432048859270521E-01  -1.8483441601905635E+00   1.8743349246634571E+00
atom   5.5823980000000004E+00   1.2976610120000002E+01   1.4755828120000002E+01  H   9.5187530631662992E-02   0.0000000000000000E+00   3.5413766636235672E-01  -2.4720002958694549E-02   1.2321338014602597E-01
atom   1.7202882120000002E+01   1.7529761120000000E+01   1.7253330000000000E+00  O  -2.3262615060399691E-01   0.0000000000000000E+00  -1.3631896533203576E+00  -2.1745503855595716E-01   3.1269552829065579E+00
atom   1.5555362120000000E+01   1.7707306119999998E+01   8.1691300000000000E-01  H   1.2534333505776438E-01   0.0000000000000000E+00  -3.1532394246474049E+00   5.2738776328431991E-01  -2.0133666997614421E+00
atom   1.6894325119999998E+01   1.7500357120000000E+01   3.5894670000000000E+00  H   1.2601298150049825E-01   0.0000000000000000E+00   2.8415860135488327E+00  -8.5987231059026081E-01  -3.0920225727607487E+00
atom   1.9378391120000000E+01   6.9888079999999997E+00   2.3226305119999999E+01  O  -2.3162640921739303E-01   0.0000000000000000E+00   1.5893105220874217E+00  -4.1009765239501000E-01   2.2227739249551490E+00
atom   2.0527700120000002E+01   5.6217759999999997E+00   2.2608748119999998E+01  H   1.5557664421869905E-01   0.0000000000000000E+00   1.4066875325354353E-01   4.1544055492115645E-01   1.1524484884212986E-03
atom   1.9530371120000002E+01   7.1390810000000000E+00   1.6151770000000001E+00  H   1.0795238217595809E-01   0.0000000000000000E+00  -6.9926614968973011E-01   7.7599849915099972E-01  -4.4297894527893161E-01
atom   2.1806718119999999E+01   2.0124038120000002E+01   1.0813332000000001E+01  O  -2.7373542473376206E-01   0.0000000000000000E+00  -2.6067046613611833E+00   2.9443180223524851E-01   2.3154025186392246E+00
atom   2.3201606120000001E+01   1.9899746120000000E+01   9.5583250000000000E+00  H   1.2507380452379219E-01   0.0000000000000000E+00   3.7495283547547884E+00   6.5551464378312518E-01  -3.8887892182115280E+00
atom   2.0232740119999999E+01   1.9309053120000002E+01   1.0157999999999999E+01  H   1.2056716757217957E-01   0.0000000000000000E+00  -7.3705370840274842E-01  -3.8854169373786823E-01   1.5464075665726834E-01
atom   1.9414039119999998E+01   7.2969790000000003E+00   1.0339688000000001E+01  O  -2.1024085620370941E-01   0.0000000000000000E+00  -1.4707317554509822E-01  -3.9922235539686146E-01  -3.3040579399185175E+00
atom   1.7952081119999999E+01   7.6299729999999988E+00   1.1489841000000000E+01  H   1.5006708742334049E-01   0.0000000000000000E+00  -1.7705538134182714E+00   1.2224283954275779E+00   2.5052423855830259E+00
atom   1.8860327119999997E+01   6.1703960000000002E+00   8.9271440000000002E+00  H   1.3704502049091657E-01   0.0000000000000000E+00   2.1736965202896741E+00   2.9514710937925761E+00   1.8885668593194052E+00
atom   6.6526620000000003E+00   3.7843859999999996E+00   1.0913183000000000E+01  O  -2.2739308508708000E-01   0.0000000000000000E+00  -8.2999835678414879E-01   2.5696016783823907E+00  -5.5344951126257735E-01
atom   8.5366789999999995E+00   3.6389739999999997E+00   1.0933190000000000E+01  H   1.2578516874051948E-01   0.0000000000000000E+00   1.6448725271404459E+00  -7.5450052797596878E-01   4.9252847155619633E-01
atom   6.1504919999999998E+00   5.3312030000000004E+00   9.9507670000000008E+00  H   1.0518508763186259E-01   0.0000000000000000E+00  -1.1076906595181102E+00  -4.3574451194997010E+00   1.7025658983120420E-01
atom   8.1051540000000006E+00   1.9067267120000000E+01   2.2263393120000000E+01  O  -2.7059328279462608E-01   0.0000000000000000E+00   1.5629201672090829E+00  -1.5648515121531541E+00  -1.4109727437161761E+00
atom   9.1921739999999996E+00   2.0048709119999998E+01   2.1069146120000003E+01  H   1.3299672435351773E-01   0.0000000000000000E+00  -1.4332966725413443E+00   5.1176263595515614E-01  -2.1005700060410026E-01
atom   6.9875889999999998E+00   2.0254576120000003E+01   2.3218594119999999E+01  H   1.3317148444609153E-01   0.0000000000000000E+00  -8.7294293681768276E-01   1.4994955036802129E+00   5.3287186581179935E-01
atom   1.5623629999999999E+00   4.5630629999999996E+00   1.4742089999999999E+00  O  -2.7798359361260522E-01   0.0000000000000000E+00   1.2928981733195550E+00  -6.2792684232915075E-01  -1.8793935503841452E+00
atom   1.6216100000000000E-01   5.2350859999999999E+00   2.5507260000000000E+00  H   1.0460667762718608E-01   0.0000000000000000E+00  -3.0727671896362132E+00   3.7000398224066161E-01   9.0375882388266915E-01
atom   8.3304400000000001E-01   3.5983070000000001E+00   2.2176000000000001E-02  H   1.2855042594087096E-01   0.0000000000000000E+00   3.7750966015506970E-01   2.3681333343300873E-01   1.2751255129378911E-01
atom   1.4430870000000000E+00   1.6118487120000001E+01   1.0154954000000000E+01  O  -2.4772935843378013E-01   0.0000000000000000E+00  -3.4139403670886734E+00  -1.6931739134941193E+00   3.2789756808149306E-01
atom   6.4445000000000002E-02   1.4838290120000000E+01   9.9774569999999994E+00  H   1.3195572855546361E-01   0.0000000000000000E+00   2.4631992154433746E+00   3.6811734856909157E+00  -2.4499586185642672E-01
atom   9.8432999999999993E-01   1.7354597120000001E+01   1.1508702000000000E+01  H   1.3604968028232867E-01   0.0000000000000000E+00   7.1494852439172640E-01   1.4177765094878765E+00   1.3807122369600173E+00
atom   3.1796679999999999E+00   4.1268409999999998E+00   1.9353258120000000E+01  O  -2.9075104206015095E-01   0.0000000000000000E+00   1.9500702680468076E+00  -5.4915154783384035E-01   2.4874322885501357E-02
atom   2.0866430000000000E+00   3.0503350000000000E+00   1.8249854119999998E+01  H   1.4480109094420784E-01   0.0000000000000000E+00  -6.7414760933020013E-01   4.0884421025971923E-01   4.4652723919304782E-01
atom   2.1039550000000000E+00   5.3712010000000001E+00   2.0283566120000003E+01  H   1.2405306802426698E-01   0.0000000000000000E+00  -2.1332767605467131E+00   5.7744205545182903E-01   2.0792336534027495E-01
atom   1.9962778119999999E+01   9.0066399999999991E-01   1.7137299120000002E+01  O  -2.2250361276354205E-01   0.0000000000000000E+00  -2.1078393841519712E-02  -1.7938013378653219E+00   1.9458481070506302E+00
atom   1.8594053120000002E+01   2.3110115120000000E+01   1.6890096119999999E+01  H   1.1623679368982232E-01   0.0000000000000000E+00   3.0475017681381988E+00   1.3855536797198176E+00   5.4933829161057324E-01
atom   1.9230006119999999E+01   2.6383690000000000E+00   1.7016920119999998E+01  H   1.4935175406248483E-01   0.0000000000000000E+00  -2.0613520296466217E-01   2.4590268092309162E+00  -4.6506506657774632E-01
atom   1.3187104120000003E+01   9.3725070000000006E+00   1.1399421000000000E+01  O  -2.1583420829672295E-01   0.0000000000000000E+00  -3.2746798588744670E+00   1.6339894767503425E+00  -1.1979006277252975E+00
atom   1.3322475120000000E+01   8.4010140000000000E+00   9.7842009999999995E+00  H   1.0066800373129205E-01   0.0000000000000000E+00   3.3941189648152109E-01   4.1432698687575487E-01   2.1478552782071549E+00
atom   1.1944099120000001E+01   1.0779756000000001E+01   1.1185758000000000E+01  H   1.1591760333120182E-01   0.0000000000000000E+00   4.5666698572740829E+00  -3.4409841540705055E+00   9.4200205116926128E-01
atom   1.8499814120000000E+01   2.3340060120000000E+01   5.2177379999999998E+00  O  -2.9821823707955697E-01   0.0000000000000000E+00  -4.5520831071409690E-01  -2.0434221346951218E+00   2.2944231015331891E+00
atom   1.8572990120000000E+01   5.1064200000000004E-01   3.4482680000000001E+00  H   1.0405875762306126E-01   0.0000000000000000E+00   2.6104356710258114E-01   1.2141310643991072E+00  -4.1166509278115804E+00
atom   1.7454767120000000E+01   1.0133170000000000E+00   6.2801569999999991E+00  H   1.2697713760380755E-01   0.0000000000000000E+00  -3.1062959614490095E+00   1.6970098318887568E+00   1.1250673924879109E+00
atom   2.8010579999999998E+00   2.2795660119999997E+01   8.8208199999999994E+00  O  -2.2799808968735891E-01   0.0000000000000000E+00  -2.5519316948389763E+00  -1.3783798993803353E+00  -4.2412453050611609E-01
atom   3.4730560000000001E+00   4.3280400000000002E-01   7.4599739999999999E+00  H   1.5602063058146728E-01   0.0000000000000000E+00   5.6080300590133436E-01   1.9711638978529586E-01  -9.9400751802666526E-02
atom   3.8266409999999995E+00   2.3024701120000000E+01   1.0391419000000001E+01  H   1.3667556411451762E-01   0.0000000000000000E+00   1.1070620329936423E+00   8.1504418884952323E-01   9.4333345679424541E-01
atom   2.2092354120000000E+01   8.2930050000000008E+00   1.7548316119999999E+01  O  -2.8970151133088934E-01   0.0000000000000000E+00  -1.7481377745764721E+00   1.8118803172009796E+00  -8.7460799660030719E-01
atom   2.2387122120000001E+01   6.7051109999999996E+00   1.6567106119999998E+01  H   1.3950379247641392E-01   0.0000000000000000E+00   1.0391577002840910E+00  -9.2647528648047439E-01   4.0649174169068181E-01
atom   2.3083917119999999E+01   8.2333010000000009E+00   1.9155891120000000E+01  H   1.3337962365609179E-01   0.0000000000000000E+00   1.7153563836254182E+00  -1.5676935920840307E+00   1.1506331930300877E+00
atom   1.6468389120000001E+01   2.1570904120000002E+01   1.3416173120000000E+01  O  -2.4099537473246418E-01   0.0000000000000000E+00  -1.5533453343342556E+00   6.7795678820108141E-01   1.0457264785845737E+00