Generated by RuNNerUC, original comment lines: 12.4297

192 atoms
2 atom types

0.0 1.2429699051257149E+01 xlo xhi
0.0 1.2429699051257149E+01 ylo yhi
0.0 1.2429699051257149E+01 zlo zhi

Masses

1 1.0079
2 15.9994

Atoms

    1  2 0.0  1.0744899891877074E+01   6.3694219554267484E+00   1.0335783403206583E-01
    2  1 0.0  1.0424926013384917E+01   5.4431389932461860E+00   3.0257982364501490E-01
    3  1 0.0  1.1117615275220160E+01   6.7795559883681369E+00   9.3574776223256562E-01
    4  2 0.0  9.5479200963717545E+00   1.1869232123475031E+01   1.2410045938906434E+01
    5  1 0.0  9.1866349407347325E+00   1.0992109258298765E+01   1.2093617018534783E+01
    6  1 0.0  1.0260483137453706E+01   1.2182258963572501E+01   1.1782138021772507E+01
    7  2 0.0  1.0299239017858175E+01   1.0974849550961345E+00   5.4238928181688957E+00
    8  1 0.0  9.7220469152206022E+00   4.0840679853247364E-01   4.9856917552598290E+00
    9  1 0.0  1.0220360921496592E+01   1.9624378028286960E+00   4.9282781448340458E+00
   10  2 0.0  1.1341538198576794E+01   9.4610921708051663E+00   9.5940982163042445E+00
   11  1 0.0  1.1931969256619469E+01   8.8710040195936699E+00   1.0144721918828937E+01
   12  1 0.0  1.0417828159485779E+01   9.4591670241202266E+00   9.9771860021133740E+00
   13  2 0.0  7.7330200743678903E+00   1.7996999358636376E+00   8.3393190401880659E+00
   14  1 0.0  7.1623130384218818E+00   1.4988457590959130E+00   9.1033741987314070E+00
   15  1 0.0  8.6138138418403098E+00   1.3275510966675668E+00   8.3750691940476099E+00
   16  2 0.0  8.3147260585949407E+00   4.7601040404048964E+00   8.8451632381426322E+00
   17  1 0.0  7.8160289280199136E+00   5.1501579149882204E+00   8.0711103345969466E+00
   18  1 0.0  9.2975510128374310E+00   4.8090449945435614E+00   8.6672311059866409E+00
   19  2 0.0  9.9745268866400920E+00   6.9952581437889503E+00   8.6555823280934217E+00
   20  1 0.0  9.4666818696597534E+00   7.3904011155875144E+00   7.8901052703905341E+00
   21  1 0.0  1.0928144963207549E+01   7.2931219401507992E+00   8.6121083036969477E+00
   22  2 0.0  3.3039168436269821E+00   6.2627112546009025E+00   4.8761822361776250E+00
   23  1 0.0  2.7080050972346910E+00   6.5297060276754619E+00   5.6335480656268784E+00
   24  1 0.0  4.0550817745456964E+00   5.7020860393321433E+00   5.2247438550107352E+00
   25  2 0.0  6.1744708915632565E+00   4.4795078255373326E+00   3.3895731708537022E+00
   26  1 0.0  7.0324180257322428E+00   4.9686617743322135E+00   3.5468017738998801E+00
   27  1 0.0  5.5527659896687016E+00   5.0581588697390529E+00   2.8617019715905792E+00
   28  2 0.0  9.9713422981986497E+00   5.7982687595926130E+00   2.8705810359739128E+00
   29  1 0.0  1.0644035011674788E+01   5.7083890690639452E+00   2.1361391632018183E+00
   30  1 0.0  9.1815252056083558E+00   6.3136122811202720E+00   2.5379391842847463E+00
   31  2 0.0  7.9074199486563836E+00   2.7049898455000085E+00   1.3284999114026117E+00
   32  1 0.0  7.8907852631036022E+00   1.9932121033956418E+00   6.2629286829323783E-01
   33  1 0.0  8.4426340108662323E+00   2.3882211933604269E+00   2.1115731696463311E+00
   34  2 0.0  1.3418801571224162E+00   9.9557712588351848E+00   2.9249407647287846E+00
   35  1 0.0  2.1025131266576516E+00   9.5593302153438913E+00   3.4390147266317150E+00
   36  1 0.0  1.4205730414609843E+00   1.0952662272459845E+01   2.9289090646161808E+00
   37  2 0.0  4.3623792130055055E+00   1.4786999827639788E+00   1.5750160556810182E+00
   38  1 0.0  4.3997968042493909E+00   6.4915014864211018E-01   2.1321920304027664E+00
   39  1 0.0  3.4193700811163383E+00   1.8085768835381373E+00   1.5312620965411885E+00
   40  2 0.0  4.1955280515978908E+00   5.7850779593134920E+00   1.0676260845324963E+01
   41  1 0.0  4.4994747399727553E+00   5.1180040494384169E+00   9.9960929745999429E+00
   42  1 0.0  3.9810149573648315E+00   5.3143822407322743E+00   1.1532082211145681E+01
   43  2 0.0  6.3169381598764121E+00   9.7072003194557315E+00   1.5890090886083976E+00
   44  1 0.0  6.5244841069808608E+00   1.0323524018315888E+01   8.2935774279514163E-01
   45  1 0.0  7.0412399389770455E+00   9.7688992069168670E+00   2.2757260564672235E+00
   46  2 0.0  4.4202547951344080E+00   9.8640050515578075E+00   3.9758528336948022E+00
   47  1 0.0  3.5374242245860312E+00   9.8276209434023460E+00   3.5075728090709082E+00
   48  1 0.0  4.6923809996008963E+00   1.0818162888878053E+01   4.1004698329057261E+00
   49  2 0.0  2.2511907551898358E+00   8.6356021842277819E+00   9.5606790880486461E+00
   50  1 0.0  2.6219730541898554E+00   8.7035252540166397E+00   8.6344459320269618E+00
   51  1 0.0  2.7464598758074605E+00   7.9296893131264845E+00   1.0067032883655109E+01
   52  2 0.0  2.1072280955864016E+00   1.0943558307762848E+01   8.0616269498413740E+00
   53  1 0.0  1.3196271971457811E+00   1.0513609234244909E+01   8.5030200096728006E+00
   54  1 0.0  2.9119489350801029E+00   1.0360777035447896E+01   8.1747211153347301E+00
   55  2 0.0  6.3310513160301465E+00   6.6563529506586292E+00   7.5238415520736035E-01
   56  1 0.0  6.4426262137575714E+00   7.2575358312259253E+00   1.2390799234651935E+01
   57  1 0.0  6.2298191868450843E+00   7.2092870408761280E+00   1.5794368020817793E+00
   58  2 0.0  1.7418328205700728E+00   1.2077780861389801E+01   1.2193210285904767E+01
   59  1 0.0  1.0143390445470797E+00   1.2187109867542602E-01   1.1696946841312158E+01
   60  1 0.0  1.4864450203892530E+00   1.1119936246457140E+01   1.2324773794333169E+01
   61  2 0.0  9.2462351113865058E+00   7.0347051296278700E+00   5.4606388835350508E+00
   62  1 0.0  1.0086851099294909E+01   7.4968091270500326E+00   5.1781058800839590E+00
   63  1 0.0  8.4578340970064616E+00   7.5055320841568252E+00   5.0647270172523706E+00
   64  2 0.0  7.5698398152564312E+00   9.1968898658604612E+00   5.1579960878022106E+00
   65  1 0.0  6.7572173016837063E+00   9.7266438776318331E+00   4.9150878737321335E+00
   66  1 0.0  7.8542662147599422E+00   9.4303612627693258E+00   6.0878308239057235E+00
   67  2 0.0  5.0927130831071290E+00   6.8577980137249650E+00   7.5227128805888945E+00
   68  1 0.0  6.0694149278687481E+00   7.0040890530463020E+00   7.3657012401982493E+00
   69  1 0.0  4.5844971129035557E+00   7.0791512525565690E+00   6.6904150292226943E+00
   70  2 0.0  2.1559684915630015E-01   2.6227879870911206E+00   6.3700379176975730E+00
   71  1 0.0  1.1925900123213875E+01   2.8184359138370909E+00   5.7035222262763225E+00
   72  1 0.0  5.2950794436936632E-01   1.6803720628528103E+00   6.2546629984350934E+00
   73  2 0.0  5.1264661221813634E+00   3.3202049181081206E+00   9.0991661815685099E+00
   74  1 0.0  5.6921131656586041E+00   2.6222810353252686E+00   9.5384218946543449E+00
   75  1 0.0  5.7112381591551227E+00   3.9497342342092421E+00   8.5875650647614297E+00
   76  2 0.0  7.0154383166394458E+00   1.2375728796927818E+01   2.4476260976222237E+00
   77  1 0.0  6.4664878724483925E+00   3.0473410406128248E-01   1.6926521491559063E+00
   78  1 0.0  6.7510582081526493E+00   4.0146293520104087E-01   3.2977349954759543E+00
   79  2 0.0  6.1595851366849450E+00   1.2483078680320403E+00   1.1350344236505338E+01
   80  1 0.0  6.1850269185206885E+00   2.0072310660062436E+00   1.0699660003135456E+01
   81  1 0.0  5.4135759793097575E+00   1.3916921369464590E+00   1.2000660162538026E+01
   82  2 0.0  1.7257331331752008E+00   5.4722728444664286E+00   1.1799978173006510E+01
   83  1 0.0  8.5727184054952910E-01   5.4051128482123945E+00   1.2291165220636886E+01
   84  1 0.0  2.4346041048726512E+00   5.8074880849210855E+00   1.2420569156876931E+01
   85  2 0.0  8.2803321224198079E-01   2.8292221328802700E+00   3.7398932455510363E+00
   86  1 0.0  8.6962124906695371E-01   2.6657010836464634E+00   4.7255561771633241E+00
   87  1 0.0  1.7525301378422047E+00   2.8084180601008195E+00   3.3592719547112568E+00
   88  2 0.0  7.0040832320970070E+00   1.9276639809190452E+00   5.0007172129212147E+00
   89  1 0.0  7.4146099145271878E+00   2.8394638285757847E+00   4.9913222007594822E+00
   90  1 0.0  6.3091301501633126E+00   1.8823981624942052E+00   5.7183460674212254E+00
   91  2 0.0  1.9022438953488554E+00   5.8668458924113152E+00   2.4574042340829929E+00
   92  1 0.0  1.8618951915464563E+00   6.3527639860767886E+00   3.3304979439928717E+00
   93  1 0.0  2.8491678802273479E+00   5.8341221030078358E+00   2.1376150384366430E+00
   94  2 0.0  6.1333691685930001E+00   1.0165149217435854E+01   8.0447139170768622E+00
   95  1 0.0  6.5862703086814198E+00   1.0401943847214813E+01   8.9042749782308572E+00
   96  1 0.0  6.6925169210953097E+00   9.5039290658424669E+00   7.5445303277228417E+00
   97  2 0.0  2.3713848912911644E+00   6.0703092373513057E+00   7.6474119022671552E+00
   98  1 0.0  2.6483879929122396E+00   5.3263231244446487E+00   8.2554862576222305E+00
   99  1 0.0  2.9540777910122791E+00   6.8669263205735582E+00   7.8084479353293110E+00
  100  2 0.0  9.1033731403769913E+00   9.2763500571515198E+00   9.1300690086958836E-01
  101  1 0.0  8.2315431056412809E+00   9.3703028246548890E+00   4.3229174102047430E-01
  102  1 0.0  8.9400918084186838E+00   9.2607901305094344E+00   1.8994641274720061E+00
  103  2 0.0  1.0254602920311587E+01   3.6983179089790696E+00   1.2290831309818250E+01
  104  1 0.0  1.0862791048766516E+01   2.9749157311330801E+00   1.1964034220398224E+01
  105  1 0.0  1.0335027272476740E+01   3.7778389556491190E+00   8.5471485627750654E-01
  106  2 0.0  1.1539618223773553E+01   1.0649182318382978E+01   5.7221688435762532E+00
  107  1 0.0  1.2277761161942694E+01   1.0530492103908529E+01   5.0580477425252441E+00
  108  1 0.0  1.0706704939313733E+01   1.0217910831020712E+01   5.3753820851008340E+00
  109  2 0.0  1.0273467029444257E+01   3.8613949785348498E+00   5.4715272337794918E+00
  110  1 0.0  9.4998321758933759E+00   4.0376078139400535E+00   6.0801619877984896E+00
  111  1 0.0  9.9804552589081901E+00   3.2652329313228834E+00   4.7240411428150626E+00
  112  2 0.0  3.5204371070123144E+00   2.0026108197978347E+00   5.7750077170335681E+00
  113  1 0.0  4.5174159640536038E+00   1.9256621035388584E+00   5.7855949654463075E+00
  114  1 0.0  3.2547001881626305E+00   2.8211511220944896E+00   5.2657191046281335E+00
  115  2 0.0  4.2890627691064553E+00   1.0089963190458770E+01   1.1781280225517344E+01
  116  1 0.0  4.8642889784140264E+00   1.0609319928435292E+01   1.1149311931661723E+01
  117  1 0.0  3.6976728419617695E+00   1.0718260052841030E+01   1.2286750824362628E+01
  118  2 0.0  8.2676689118176760E-01   2.4146689410697446E+00   7.8011780353361049E-01
  119  1 0.0  8.5811905326052026E-02   2.7702881963341395E+00   1.3497860646191093E+00
  120  1 0.0  4.4082789857262644E-01   1.9041420539961538E+00   1.1735033778223677E-02
  121  2 0.0  7.6364875044712621E-01   8.5295360212420306E+00   5.3737702113233965E+00
  122  1 0.0  3.4102825209128107E-02   7.8520849463060358E+00   5.2798428443260397E+00
  123  1 0.0  5.2088500175500141E-01   9.1836572605818603E+00   6.0901427991301578E+00
  124  2 0.0  1.6826078365592045E+00   2.1838302007737362E+00   1.0241303109527491E+01
  125  1 0.0  1.1042039181139063E+00   1.6141677606375324E+00   9.6574068608339871E+00
  126  1 0.0  1.1133650339494316E+00   2.8423171520846315E+00   1.0733600900118750E+01
  127  2 0.0  1.0563847201721886E+01   4.7661086141910392E-01   9.0686681115044596E+00
  128  1 0.0  9.8395491268617139E+00   1.2229346209949393E+01   8.9378539180034569E+00
  129  1 0.0  1.0176080960211401E+01   1.3961647427136645E+00   9.0049662883087151E+00
  130  2 0.0  6.9783149479235496E+00   4.9597170919750120E+00   6.0323137845956136E+00
  131  1 0.0  7.0499501958308315E+00   4.4456251380469878E+00   5.1775761736981361E+00
  132  1 0.0  6.3205450317303251E+00   5.7044011896198299E+00   5.9192481946715239E+00
  133  2 0.0  9.7896799958991387E+00   1.2351027863184134E+01   2.7611080301191038E+00
  134  1 0.0  9.8284030673166765E+00   2.7022010816106129E-01   1.8247448347929203E+00
  135  1 0.0  9.2366649415687228E+00   5.3622426150109492E-01   3.3233159509175620E+00
  136  2 0.0  1.4822560536058647E+00   1.2062943790814680E+01   4.6677769052863889E+00
  137  1 0.0  1.8378620794400438E+00   2.2903001259696609E-01   3.9476482176528855E+00
  138  1 0.0  2.0249712027478184E+00   1.2184147067852837E+01   5.4989020999583023E+00
  139  2 0.0  1.1690770284933215E+01   4.3884692369218010E+00   9.2861689402573528E+00
  140  1 0.0  1.1846754792361944E+01   3.5481919224269087E+00   8.7669349713932263E+00
  141  1 0.0  1.2215482825438123E+01   4.3568752408587113E+00   1.0136860991394975E+01
  142  2 0.0  8.7146961848904816E+00   1.1414830829501456E+01   7.0995330419235447E+00
  143  1 0.0  9.2149088789909772E+00   1.1888057073494263E+01   7.8246841504440052E+00
  144  1 0.0  9.3471322713985163E+00   1.1166119128984510E+01   6.3659352067991897E+00
  145  2 0.0  4.0021513534312914E-01   8.3396122043616376E+00   1.1717893262760727E+01
  146  1 0.0  6.4505008362976912E-01   8.2365972771607545E+00   2.5226988806766631E-01
  147  1 0.0  8.6894813565759677E-01   7.6401701121672714E+00   1.1178382810794139E+01
  148  2 0.0  6.8004082162735706E+00   8.4555131257694800E+00   1.0768745146074428E+01
  149  1 0.0  7.4826959708962972E+00   8.0475201438141433E+00   1.0162094277410525E+01
  150  1 0.0  7.0163998316274974E+00   9.4214160512349139E+00   1.0911497048224554E+01
  151  2 0.0  4.0938990395063666E+00   7.7811879006047677E+00   2.0295967407283140E+00
  152  1 0.0  3.4036667474507185E+00   8.0650359094192670E+00   2.6951857793560170E+00
  153  1 0.0  4.1592598332511139E+00   6.7833538931943593E+00   2.0221348129096479E+00
  154  2 0.0  5.4355109037840155E+00   1.2294726054073649E+01   5.9793860093672517E+00
  155  1 0.0  5.1793880764604312E+00   1.1329402048474440E+01   5.9288760448050466E+00
  156  1 0.0  5.8738379108687324E+00   1.3881111947757685E-01   5.1232841796259674E+00
  157  2 0.0  1.2159078885126375E+01   5.8163772036713830E+00   4.9016017925706068E+00
  158  1 0.0  3.9434073915030532E-01   6.5632939634606089E+00   4.9024897519266606E+00
  159  1 0.0  1.1571608044388686E+01   5.8921797220965013E+00   5.7072889096472368E+00
  160  2 0.0  1.1901221944090162E+01   1.1318394104180854E+01   1.4298791518516700E+00
  161  1 0.0  1.1232291151390063E+01   1.1823696953851005E+01   8.8471814565150197E-01
  162  1 0.0  1.1710919236328403E+01   1.0338701879013355E+01   1.3667250270668430E+00
  163  2 0.0  6.7938390104058364E+00   4.2525500708892991E+00   1.1078510137858006E+01
  164  1 0.0  6.3562422678690078E+00   4.8239349828395417E+00   1.1772793281445590E+01
  165  1 0.0  6.7980750739607911E+00   4.7360561113366435E+00   1.0203179066710105E+01
  166  2 0.0  1.0860705032210157E+01   2.4887421083771128E+00   2.4978582441499060E+00
  167  1 0.0  1.0099515897428670E+01   2.9173719431139786E+00   2.9845467563298547E+00
  168  1 0.0  1.0607605923456594E+01   2.3485329027143780E+00   1.5406311790196989E+00
  169  2 0.0  4.2282640120771688E+00   3.9985571818303853E+00   3.3421985812525357E-01
  170  1 0.0  4.7893267933961869E+00   4.4339710683816813E+00   1.0382250453894979E+00
  171  1 0.0  4.8188792237884437E+00   3.6442180062336282E+00   1.2038923908138484E+01
  172  2 0.0  1.2016795304805875E+01   7.5171030730003787E+00   2.4102799453015007E+00
  173  1 0.0  1.1502083155189354E+01   7.2247040896718877E+00   3.2162422345266091E+00
  174  1 0.0  1.1972510051748595E+01   6.8046453381829437E+00   1.7099641815357129E+00
  175  2 0.0  5.8958601495824112E+00   7.0210629411898040E+00   4.3099001800500485E+00
  176  1 0.0  5.4378128246414859E+00   6.1986532316424974E+00   3.9724100067755597E+00
  177  1 0.0  6.3289732371319198E+00   6.8241820315477622E+00   5.1894927152589148E+00
  178  2 0.0  4.2518637280497265E+00   1.2127781228300110E+01   9.2494498629288380E+00
  179  1 0.0  4.0921130664272942E+00   1.1308823934363067E+01   9.8006202055100271E+00
  180  1 0.0  4.8696537769549542E+00   3.1377086325278342E-01   9.7385948157111706E+00
  181  2 0.0  8.0366889447082315E+00   1.2018883967248273E+01   9.9607709251021692E+00
  182  1 0.0  7.2014562765430581E+00   1.1532198100954368E+01   9.7047978549286231E+00
  183  1 0.0  8.5254042055971730E+00   1.1497226895945904E+01   1.0660080193817173E+01
  184  2 0.0  3.4918239661653474E+00   3.7903492340379619E+00   3.5541509869731112E+00
  185  1 0.0  3.0779359501060504E+00   3.1525827455075563E+00   4.2037292399769894E+00
  186  1 0.0  2.7796382284331398E+00   4.3661088539718165E+00   3.1525388237992411E+00
  187  2 0.0  3.2883749090099905E+00   8.9622982008009640E+00   6.3031181678962502E+00
  188  1 0.0  3.3726828927091610E+00   8.1934672179498786E+00   6.9369883246396320E+00
  189  1 0.0  3.2889501246357531E+00   8.6209529715617226E+00   5.3631422162655928E+00
  190  2 0.0  1.0012134981679077E+01   9.6269130241876084E+00   3.4774181750152491E+00
  191  1 0.0  9.8165299182870047E+00   8.9933402650354672E+00   2.7288710837475487E+00
  192  1 0.0  1.0665904318175178E+01   1.0317253797571022E+01   3.1675531687392451E+00
