LAMMPS data file via BUILD_WATER.f

768 atoms
2 atom types

0.0 1.9730900024520210E+01 xlo xhi
0.0 1.9730900024520210E+01 ylo yhi
0.0 1.9730900024520210E+01 zlo zhi

Masses

1 1.00794
2 15.9994

Atoms # atomic

 1  2 0.0   8.1460919827525178E+00   8.1758160253135266E+00   9.5031430154332455E+00
 2  1 0.0   8.6955130242351917E+00   7.3819150076157536E+00   9.7636349943797534E+00
 3  1 0.0   7.4455900015270196E+00   7.8955300141256535E+00   8.8468380205066310E+00
 4  2 0.0   1.9081959022586261E+01   1.7390283025459993E+01   1.2743999028217281E+01
 5  1 0.0   1.8469790026285231E+01   1.6613225025090259E+01   1.2597608027321238E+01
 6  1 0.0   4.7713000013607045E-02   1.7143494026829284E+01   1.3417623040662859E+01
 7  2 0.0   1.4578270005284231E+00   9.5453239953204712E+00   1.2407679977023176E+00
 8  1 0.0   1.7503160021918707E+00   9.5230449998251743E+00   2.1967769974419649E+00
 9  1 0.0   1.7192450025475987E+00   8.6906520023968632E+00   7.9221900148133473E-01
10  2 0.0   3.0509639994538791E+00   6.9670159984993987E+00   9.1096490127344438E+00
11  1 0.0   3.1194420015060924E+00   7.7710680109191319E+00   9.7002520004522008E+00
12  1 0.0   3.4530799975398421E+00   6.1775729812778719E+00   9.5734200241991818E+00
13  2 0.0   5.4116450116755255E+00   8.2465919952694637E+00   1.2384610020354163E+00
14  1 0.0   5.0424200018238752E+00   8.8395509857554124E+00   5.2286899982484059E-01
15  1 0.0   4.7488510023953667E+00   7.5286940012411527E+00   1.4513599999467606E+00
16  2 0.0   1.9418453024528127E+01   4.5553910011525884E+00   1.4962582026690171E+01
17  1 0.0   5.5593800168460061E-01   4.2738010020707904E+00   1.5370767025887424E+01
18  1 0.0   1.9593978024284855E+01   5.1927780008313809E+00   1.4212297027509257E+01
19  2 0.0   1.6984057024413712E+01   1.5683270017590771E+00   1.5315294024704617E+01
20  1 0.0   1.7836559025649731E+01   2.0908909981286574E+00   1.5302340025934580E+01
21  1 0.0   1.7028189022459603E+01   8.4149799931263358E-01   1.4629895025601563E+01
22  2 0.0   7.8306660119443521E+00   1.0865953030757600E+01   1.8904324023432906E+01
23  1 0.0   7.8293959866436786E+00   1.0132421025277999E+01   1.9583977024313501E+01
24  1 0.0   8.6912639958386269E+00   1.1371999003981815E+01   1.8961678022046140E+01
25  2 0.0   5.8593060167898212E+00   1.9381903024609539E+01   3.6136759985859466E+00
26  1 0.0   5.9037310255478932E+00   1.8410199026274483E+01   3.3816890019567394E+00
27  1 0.0   6.2447090058043573E+00   1.9038600025439625E-01   2.8649889981560612E+00
28  2 0.0   2.1654499977394817E-01   3.0436229992109256E+00   7.8344979957828098E+00
29  1 0.0   1.0627739994388672E+00   2.5667640013069306E+00   7.5967990021543290E+00
30  1 0.0   1.9414746024408686E+01   3.2108189989465337E+00   7.0048730184973182E+00
31  2 0.0   7.3171990162997025E+00   2.1325060018241815E+00   1.2272106998720552E+01
32  1 0.0   8.2686779998367825E+00   2.4389769977784370E+00   1.2244462040494465E+01
33  1 0.0   6.9083219908996547E+00   2.3932219973584101E+00   1.3146662031492017E+01
34  2 0.0   1.5241831025177639E+01   9.7374560157746917E+00   1.4352403043616311E+01
35  1 0.0   1.5815054023578458E+01   8.9751689970384909E+00   1.4051849016161313E+01
36  1 0.0   1.5814948024091803E+01   1.0438168027434287E+01   1.4777376025711911E+01
37  2 0.0   1.8128910023188944E+01   1.0674546035996904E+01   5.9860240082721052E+00
38  1 0.0   1.8667682024236225E+01   1.1459164015430289E+01   5.6792660130587569E+00
39  1 0.0   1.8616045023346889E+01   1.0202502026805860E+01   6.7207840223820190E+00
40  2 0.0   1.4091887040024533E+01   2.9921530013568534E+00   3.5472750012022267E+00
41  1 0.0   1.4687056022703272E+01   2.9583969988902510E+00   2.7443829981414964E+00
42  1 0.0   1.3708108042945513E+01   2.0842919995840785E+00   3.7160969984549705E+00
43  2 0.0   1.9178652023137222E+01   1.5423094026230849E+01   6.5152500070247221E-01
44  1 0.0   1.9162169026231293E+01   1.4461355026883293E+01   3.7805399978326421E-01
45  1 0.0   1.8408723024037130E+01   1.5609309025268088E+01   1.2618799986994602E+00
46  2 0.0   1.5660177025837868E+01   1.7838811023929338E+01   8.3398340248639453E+00
47  1 0.0   1.5324259022174857E+01   1.7022542024296868E+01   8.8097959863276980E+00
48  1 0.0   1.6113707024245688E+01   1.8439549025217357E+01   8.9981830196765529E+00
49  2 0.0   3.6651939981046122E+00   1.2389583016089833E+01   1.2791353032825032E+01
50  1 0.0   4.3094529988499088E+00   1.1680068035729500E+01   1.3076869008201081E+01
51  1 0.0   3.7345759988740737E+00   1.2524616021968789E+01   1.1802944041924086E+01
52  2 0.0   2.3746640013656060E+00   1.2881341045928304E+01   1.6795682024554580E+01
53  1 0.0   3.1804640025243764E+00   1.2307247011258564E+01   1.6650414022363567E+01
54  1 0.0   1.7668319985885310E+00   1.2808868004664344E+01   1.6004931024151208E+01
55  2 0.0   1.5178441024943846E+01   1.3269077018502456E+01   1.3613634035891661E+01
56  1 0.0   1.6066594022814058E+01   1.3446721013668357E+01   1.3189809024373567E+01
57  1 0.0   1.5275625022567821E+01   1.2550959045508524E+01   1.4302736005429706E+01
58  2 0.0   1.7609510024975616E+01   1.8037095025772931E+01   2.4147480001447121E+00
59  1 0.0   1.7693234024582676E+01   1.7045953025093286E+01   2.3116539979935449E+00
60  1 0.0   1.8318731026229475E+01   1.8489534024821527E+01   1.8740970019568539E+00
61  2 0.0   1.9887040004212828E+00   1.0374653003793187E+01   8.5708219931327818E+00
62  1 0.0   1.2309939994073196E+00   1.0968046025425638E+01   8.8424119823337826E+00
63  1 0.0   1.6588500024367128E+00   9.4354199746292462E+00   8.4753149792499922E+00
64  2 0.0   1.6321601027075559E+01   6.4365160056170447E+00   1.5078583026091705E+01
65  1 0.0   1.6718825025289398E+01   5.9592570079528304E+00   1.5862443022675018E+01
66  1 0.0   1.6704718023466604E+01   7.3583890060283554E+00   1.5020505023096964E+01
67  2 0.0   1.3331365038949945E+01   5.6409989865596035E+00   1.2033834006573889E+01
68  1 0.0   1.3827003048999694E+01   4.7991049986499927E+00   1.1820392019928784E+01
69  1 0.0   1.2877054022608162E+01   5.9784659818723540E+00   1.1209384011964595E+01
70  2 0.0   1.2476569006888637E+01   1.6430214024714470E+01   1.6475888023979177E+01
71  1 0.0   1.1928773015695896E+01   1.7265733025375454E+01   1.6433129023826982E+01
72  1 0.0   1.3222097036345753E+01   1.6553598025154010E+01   1.7130841024055506E+01
73  2 0.0   6.7434600066192185E-01   1.6741651025973475E+01   5.9661710256896967E+00
74  1 0.0   1.2602059995177308E+00   1.7482797023634408E+01   6.2939969943564300E+00
75  1 0.0   9.1963999959349021E-02   1.7079360024607269E+01   5.2267219987931144E+00
76  2 0.0   1.0100926038270643E+01   4.8717150015590871E+00   6.9899569946826743E+00
77  1 0.0   1.0134996001575114E+01   5.0321890007997458E+00   7.9764079769940297E+00
78  1 0.0   1.0953056022637229E+01   4.4410000022411715E+00   6.6927020166993376E+00
79  2 0.0   8.8150690255406534E+00   4.8098419989209988E+00   1.2718895020193797E+01
80  1 0.0   9.4898680230602359E+00   5.0239249990859847E+00   1.2012627018267798E+01
81  1 0.0   8.6898919980898501E+00   5.6049859903805421E+00   1.3312255021168431E+01
82  2 0.0   1.1494103998983444E+01   2.8632860000632996E+00   9.3592409995379207E+00
83  1 0.0   1.1469448045302494E+01   2.0783999976655241E+00   9.9784350084953228E+00
84  1 0.0   1.1950614011215627E+01   3.6298630002202401E+00   9.8108579747106521E+00
85  2 0.0   1.7287996023843736E+01   1.1850434045074449E+01   1.7165347024088103E+01
86  1 0.0   1.8031198023129758E+01   1.2497252003922759E+01   1.6994243024208018E+01
87  1 0.0   1.7460907026305161E+01   1.1003458035048876E+01   1.6662621024002384E+01
88  2 0.0   7.8430599771827414E-01   1.8869380002257645E+00   1.8186069025292575E+01
89  1 0.0   3.7061400000976902E-01   1.1669469992101704E+00   1.8743269024659593E+01
90  1 0.0   1.5241159975559397E+00   1.4992430018428753E+00   1.7636183022255551E+01
91  2 0.0   1.4608192023622525E+01   1.0134352998348927E+01   9.8051189949655129E+00
92  1 0.0   1.5076166025066678E+01   9.4004950197088153E+00   9.3126590115598145E+00
93  1 0.0   1.5264086022486529E+01   1.0617810036986755E+01   1.0384880041280024E+01
94  2 0.0   3.6469960013668281E+00   5.3758099777917199E+00   1.1385365014834704E+01
95  1 0.0   3.7404070025357905E+00   6.1152270159260400E+00   1.2052101045062079E+01
96  1 0.0   2.7363780022124908E+00   4.9699450026042422E+00   1.1463135014121452E+01
97  2 0.0   1.5204934022596271E+01   1.4927292024164149E+01   1.8203838023359104E+01
98  1 0.0   1.6166471024419756E+01   1.4975024025343785E+01   1.8474335023494575E+01
99  1 0.0   1.4735130025821062E+01   1.4243600029025327E+01   1.8762273027079136E+01
100  2 0.0  1.1842423042984128E+01   9.6295500094700293E-01   1.2824437033154414E+01
101  1 0.0  1.2060909040946296E+01   1.0579439979685081E+00   1.1853231011210580E+01
102  1 0.0  1.1079890009763641E+01   3.2530500019552888E-01   1.2933725038657094E+01
103  2 0.0  1.6939165022060813E+01   4.2217610009864597E+00   5.8513489907747758E+00
104  1 0.0  1.7335500023731274E+01   3.7006340012021872E+00   6.6072230167552251E+00
105  1 0.0  1.7666404025716716E+01   4.6992260020462160E+00   5.3582460041428916E+00
106  2 0.0  6.3802229808482229E+00   7.1459880167880367E+00   1.7687393024763487E+01
107  1 0.0  6.6048160013041226E+00   7.8771120013798432E+00   1.7043176024813238E+01
108  1 0.0  6.3968420027556281E+00   7.5066800176919264E+00   1.8619930025449879E+01
109  2 0.0  6.3242630202145032E+00   5.4707319862703869E+00   6.3008530142712331E+00
110  1 0.0  6.1646630153433621E+00   6.1171889933446977E+00   7.0469239795443857E+00
111  1 0.0  5.8359399854725877E+00   5.7774490231677866E+00   5.4838680167084153E+00
112  2 0.0  1.2427286045520049E+01   1.2016420001745980E+00   1.7313210026641805E+01
113  1 0.0  1.3220775998362171E+01   6.2320599771514140E-01   1.7124037022260307E+01
114  1 0.0  1.2693916003826985E+01   2.1635209986444655E+00   1.7252398024306988E+01
115  2 0.0  1.2312129041432073E+01   9.0220690205189715E+00   5.4000859822368845E+00
116  1 0.0  1.2326934043868349E+01   8.7576539863364058E+00   6.3643810027539462E+00
117  1 0.0  1.2948424999417462E+01   8.4462049939218584E+00   4.8867560011550886E+00
118  2 0.0  1.8606373023958852E+01   5.8926569870209509E+00   3.7087949985722921E+00
119  1 0.0  1.8971494026427955E+01   5.0344480000938256E+00   4.0695780020807470E+00
120  1 0.0  1.8642892024676559E+01   6.5953049934982628E+00   4.4193949985893948E+00
121  2 0.0  7.8626759942111342E+00   2.6674539990253128E+00   8.1416600177949334E+00
122  1 0.0  7.8707029774531572E+00   3.4853470011768475E+00   8.7169750230381116E+00
123  1 0.0  7.5624310062459656E+00   2.9115000023034030E+00   7.2195459771651000E+00
124  2 0.0  1.6298665026325132E+01   4.5490889980245717E+00   9.8958839989641909E+00
125  1 0.0  1.5575277025136561E+01   5.0249280015671909E+00   9.3955510228841774E+00
126  1 0.0  1.6926916024918722E+01   4.1208100024852445E+00   9.2463180228715522E+00
127  2 0.0  9.3081640215966832E+00   1.8266197022345583E+01   1.2565971009151090E+01
128  1 0.0  9.4747300094065796E+00   1.7740755026933922E+01   1.3400336038365019E+01
129  1 0.0  8.6690440036020870E+00   1.7767792024048578E+01   1.1980208034936481E+01
130  2 0.0  1.3958073046763340E+01   1.9701259024521441E+01   1.5799030019107960E+00
131  1 0.0  1.4882798026573390E+01   1.9178999999486065E-02   1.2024100003492315E+00
132  1 0.0  1.3301887010873221E+01   1.9564637024529588E+01   8.3777499952029022E-01
133  2 0.0  2.7867960010676098E+00   1.6517278026817369E+01   2.2121269994853932E+00
134  1 0.0  2.3041960019615391E+00   1.5738514022628330E+01   2.6129069997480854E+00
135  1 0.0  2.3356099983971181E+00   1.7366329025346268E+01   2.4869780009003004E+00
136  2 0.0  5.1435580009670705E+00   9.8067570100970549E+00   1.6508153022034559E+01
137  1 0.0  5.8819479749325074E+00   1.0326260012654041E+01   1.6938204025666426E+01
138  1 0.0  4.7908169987498201E+00   9.1308210224270425E+00   1.7155212026393162E+01
139  2 0.0  1.1859705018098484E+01   3.4219560007981280E+00   7.2615900059907346E-01
140  1 0.0  1.1363547038523551E+01   4.2779699977063261E+00   8.7130900156433488E-01
141  1 0.0  1.2258711036437653E+01   3.4193290010896340E+00   1.9540115024650518E+01
142  2 0.0  1.1647207030675826E+01   1.6053350024350152E+01   4.3278390016663693E+00
143  1 0.0  1.2102806011425658E+01   1.6415651025599239E+01   3.5147159975815097E+00
144  1 0.0  1.0672354025245662E+01   1.5935197025286120E+01   4.1388929984320528E+00
145  2 0.0  8.7083229756772731E+00   7.4727370039998000E+00   2.7665670010360772E+00
146  1 0.0  8.1904710060111618E+00   8.1230700224563233E+00   3.3223510015694271E+00
147  1 0.0  9.5973979960404563E+00   7.3043800159273538E+00   3.1922440004900166E+00
148  2 0.0  2.1444249987672079E+00   1.0901071029523735E+01   1.8649127023386420E+01
149  1 0.0  1.9015629977427595E+00   1.0846573026764251E+01   1.7680598024272609E+01
150  1 0.0  1.5387400002197822E+00   1.0307072999588673E+01   1.9178572022126826E+01
151  2 0.0  6.2830700141757612E-01   1.4301301035593108E+01   9.6880349920723727E+00
152  1 0.0  1.4227199980646845E+00   1.3694468024134000E+01   9.7137419975250712E+00
153  1 0.0  7.7666000089936416E-01   1.5015814025895764E+01   9.0043220044736856E+00
154  2 0.0  1.3800530006619805E+01   8.6123880161858768E+00   1.7206034025588199E+01
155  1 0.0  1.3183662049000585E+01   8.8537550016358644E+00   1.6456891022574105E+01
156  1 0.0  1.4023013038791799E+01   9.4331490106384805E+00   1.7732203025816144E+01
157  2 0.0  1.0460828030519789E+01   1.9163330003984584E+00   2.9816099974505259E+00
158  1 0.0  1.0192950007766330E+01   1.3487990009554256E+00   2.2030560025284949E+00
159  1 0.0  9.7276609985609657E+00   2.5636920006083961E+00   3.1900759985087297E+00
160  2 0.0  1.7070579985154981E+00   1.2919599976016166E-01   7.4896009820370733E+00
161  1 0.0  2.4157229985680386E+00   7.7550300255867832E-01   7.7725870140964588E+00
162  1 0.0  2.1044890002698065E+00   1.9176769025416952E+01   6.8771359904644056E+00
163  2 0.0  9.2470270144956537E+00   1.9425462024282169E+01   1.5577428024654134E+01
164  1 0.0  9.2551330038949242E+00   1.8428055026365882E+01   1.5505927023712905E+01
165  1 0.0  9.3637819750004780E+00   1.9692007024511209E+01   1.6534153022324123E+01
166  2 0.0  1.1109269028784636E+01   1.0431754029241841E+01   2.4948400025639943E+00
167  1 0.0  1.1243549015495734E+01   1.0438144002789018E+01   3.4857629979640827E+00
168  1 0.0  1.0158594024180603E+01   1.0660944012108970E+01   2.2858210007392454E+00
169  2 0.0  5.1021130007415856E+00   1.2604790020396548E+01   1.7422359022583549E+01
170  1 0.0  4.8861380015520091E+00   1.1672575045208690E+01   1.7131963022615611E+01
171  1 0.0  6.0466999961889920E+00   1.2641897037536697E+01   1.7748516024543811E+01
172  2 0.0  5.1331039993754590E+00   1.2275888022793820E+01   9.6138000023746084E+00
173  1 0.0  4.9632329982667631E+00   1.2066236003316806E+01   8.6508940191124406E+00
174  1 0.0  5.8479909909620744E+00   1.2971762031823664E+01   9.6823240058015685E+00
175  2 0.0  1.2373122006496921E+01   1.4645173022502215E+01   6.5366699891572777E-01
176  1 0.0  1.1837752048681411E+01   1.4124769000495668E+01   1.3189189992874930E+00
177  1 0.0  1.3329524031441178E+01   1.4356247039777404E+01   6.9629400110500494E-01
178  2 0.0  1.8032312025822243E+01   7.8994020037610824E+00   8.6164150018257093E+00
179  1 0.0  1.7035066024250728E+01   7.9310599773486929E+00   8.5493399914313759E+00
180  1 0.0  1.8294780026550519E+01   7.4801450086609087E+00   9.4855150113421765E+00
181  2 0.0  4.1160860005015429E+00   1.4810147023014171E+01   8.4595669830279654E+00
182  1 0.0  4.8112569976097435E+00   1.4563853022036168E+01   7.7842319819137753E+00
183  1 0.0  3.9918720014856115E+00   1.5802395025226907E+01   8.4633860020248104E+00
184  2 0.0  1.5299423026532219E+01   8.0267729999187960E+00   2.0243739998090375E+00
185  1 0.0  1.6141287025969419E+01   7.5845880263946794E+00   2.3337899992235318E+00
186  1 0.0  1.4726963022289642E+01   8.2439229841823760E+00   2.8150290021749971E+00
187  2 0.0  1.5317696023555779E+01   5.3297539919589774E+00   2.3813299990365674E-01
188  1 0.0  1.4921341024278606E+01   5.4992339999035442E+00   1.1404510011229705E+00
189  1 0.0  1.4607204023315182E+01   4.9939580006849544E+00   1.9350615024738151E+01
190  2 0.0  1.4371986039986885E+01   2.4700830024950582E+00   1.1326933002870945E+01
191  1 0.0  1.5125591022889836E+01   2.1995919979373637E+00   1.1926026003888262E+01
192  1 0.0  1.4709448023991468E+01   2.5692080009531422E+00   1.0390827040585869E+01
193  2 0.0  6.6184299845969727E+00   7.5383420130263223E+00   1.2015877013012219E+01
194  1 0.0  6.7010579894119564E+00   6.9647859928245781E+00   1.1200888018962576E+01
195  1 0.0  5.9077980169846969E+00   8.2263259898757326E+00   1.1868633031373616E+01
196  2 0.0  3.9368959982453600E+00   4.1456929996475518E+00   2.6518340001865059E+00
197  1 0.0  4.2745479992020146E+00   3.4790829982641815E+00   3.3163799987853988E+00
198  1 0.0  3.2909060006411952E+00   4.7643220008075451E+00   3.0990429980045198E+00
199  2 0.0  9.3949719971825107E+00   1.9088735025615350E+01   7.2933980013169872E+00
200  1 0.0  1.0148738045752449E+01   1.9501966024777619E+01   7.8044199865869581E+00
201  1 0.0  9.0203550155402716E+00   1.8321549027159644E+01   7.8140590023595822E+00
202  2 0.0  1.1135070016109587E+01   1.2960260047688111E+01   1.0378663002844624E+01
203  1 0.0  1.1045275999370993E+01   1.3854999010468255E+01   1.0816132002003291E+01
204  1 0.0  1.0554551029279178E+01   1.2297916029539074E+01   1.0852263004699877E+01
205  2 0.0  8.7600199905538390E-01   1.2437729992744695E+00   1.5308917026582595E+01
206  1 0.0  5.0294600021842917E-01   9.7530500214290106E-01   1.4420798033639810E+01
207  1 0.0  1.6712809994961617E+00   1.8342739986688086E+00   1.5171659026336984E+01
208  2 0.0  1.2282340015909842E+01   1.5197237023677996E+01   8.8860240161462620E+00
209  1 0.0  1.1521709004330280E+01   1.5040034022225171E+01   9.5158879839141104E+00
210  1 0.0  1.3004056023498308E+01   1.5706000025529203E+01   9.3553710207758840E+00
211  2 0.0  1.1614428048089488E+01   4.1015570010219635E+00   4.4828340006327085E+00
212  1 0.0  1.1404471010869434E+01   3.8873640007906234E+00   3.5288750016485984E+00
213  1 0.0  1.2108966004557971E+01   4.9695129982064463E+00   4.5285090000423374E+00
214  2 0.0  9.0872910110819003E+00   1.2228737010563291E+01   5.3266079805360453E+00
215  1 0.0  9.6617459975256370E+00   1.2254448037762776E+01   6.1447409751352300E+00
216  1 0.0  8.8193880111641967E+00   1.3159571044907551E+01   5.0780580018658243E+00
217  2 0.0  5.8680889825920710E+00   1.5484345023394386E+01   1.2640303049948912E+01
218  1 0.0  5.2974810086195152E+00   1.5401518026781877E+01   1.3457337049321245E+01
219  1 0.0  5.4252869884427106E+00   1.6096479025206609E+01   1.1985155048071208E+01
220  2 0.0  9.4219489750181644E+00   1.5232352022009358E+01   7.2970520228601874E+00
221  1 0.0  8.8384399782059262E+00   1.4552186024571656E+01   7.7407760024601178E+00
222  1 0.0  8.8640479746028937E+00   1.5816327022855043E+01   6.7073749894220658E+00
223  2 0.0  6.6987640062126150E+00   9.0668939814113152E+00   7.1819879952077690E+00
224  1 0.0  5.8202109867123486E+00   8.8715179988328519E+00   6.7461290177063056E+00
225  1 0.0  7.1803129905893419E+00   9.7711810084568675E+00   6.6603650029176329E+00
226  2 0.0  1.6018323022896812E+01   1.3801182005858539E+01   3.8813189978657419E+00
227  1 0.0  1.6030283025781735E+01   1.4413422044199823E+01   3.0907370007874828E+00
228  1 0.0  1.5393875025105967E+01   1.3040431029805781E+01   3.7043389983858934E+00
229  2 0.0  7.2732759850417201E+00   9.6949079985755695E+00   3.5943309996649480E+00
230  1 0.0  6.6770320211978591E+00   1.0491585026992013E+01   3.6936789986905136E+00
231  1 0.0  6.9578439816133759E+00   9.1360619935011549E+00   2.8273940002529874E+00
232  2 0.0  1.1971245043047858E+01   1.2291059004187572E+01   5.6365209831848713E+00
233  1 0.0  1.1451186033997784E+01   1.1537320049490720E+01   5.2347549987800015E+00
234  1 0.0  1.2466037004576474E+01   1.2776189036570434E+01   4.9155300012899312E+00
235  2 0.0  1.5715860025704144E+01   6.5272659809829987E+00   4.8488729985562280E+00
236  1 0.0  1.6648175025967976E+01   6.1723179870077312E+00   4.7795900015507264E+00
237  1 0.0  1.5181193026892560E+01   5.9428059998091589E+00   5.4592320130082292E+00
238  2 0.0  1.3503039015601425E+01   3.5722880013293739E+00   1.4544548023620367E+01
239  1 0.0  1.2913869039764599E+01   3.4758840003273517E+00   1.5346785027007591E+01
240  1 0.0  1.3537280008979724E+01   2.7038909984427772E+00   1.4049861003223990E+01
241  2 0.0  1.5471485022371915E+01   1.4930143024585050E+01   9.7958219864228155E+00
242  1 0.0  1.5717728026542323E+01   1.5144283022427175E+01   8.8505669735425698E+00
243  1 0.0  1.6007873021884901E+01   1.4147147005046698E+01   1.0110834034818403E+01
244  2 0.0  1.9707345024498039E+01   1.2959236036871724E+01   1.5136224023964031E+01
245  1 0.0  8.1348099775825888E-01   1.2415333043649595E+01   1.5195709024488123E+01
246  1 0.0  1.9148599022856253E+01   1.2801216049310062E+01   1.5950369022700112E+01
247  2 0.0  3.1988469996142923E+00   9.6629699844091610E-01   1.7093885023507148E+01
248  1 0.0  2.4579739991835075E+00   1.1581009978188304E+00   1.6450210022729280E+01
249  1 0.0  3.9098620015654788E+00   1.6633169989255072E+00   1.7001033023974276E+01
250  2 0.0  7.4056830019406501E+00   1.8572273024556019E+01   1.0388734038890361E+01
251  1 0.0  6.4572169946762559E+00   1.8840035025206486E+01   1.0558191027626350E+01
252  1 0.0  8.0108179895727591E+00   1.9086148026412054E+01   1.0996800033245536E+01
253  2 0.0  1.4867259023598132E+01   1.0184394006068857E+01   6.9271629749883088E+00
254  1 0.0  1.5288885023350511E+01   9.7838309896287861E+00   6.1136420243508001E+00
255  1 0.0  1.5500724026395281E+01   1.0117645021752752E+01   7.6980500229657407E+00
256  2 0.0  3.5543900004429259E+00   1.6970340026193664E+01   1.2205158038337309E+01
257  1 0.0  4.1977609994979899E+00   1.7510163026094975E+01   1.2747988018933532E+01
258  1 0.0  3.0623519988186936E+00   1.7572013025399801E+01   1.1575961045523197E+01
259  2 0.0  5.7907959836411695E+00   4.3427760020655626E+00   1.7073496026746589E+01
260  1 0.0  6.0817520065572124E+00   3.7648739976190901E+00   1.7835975025682302E+01
261  1 0.0  6.3334429747586531E+00   4.1230859989512663E+00   1.6262773026514818E+01
262  2 0.0  9.0775850014746648E+00   1.4623525023202243E+01   1.6863323027015927E+01
263  1 0.0  8.7904110080685882E+00   1.5480288022823284E+01   1.7291680023275806E+01
264  1 0.0  8.4330459971929734E+00   1.3897940047580212E+01   1.7104353027127701E+01
265  2 0.0  8.4305819893565062E+00   9.3342999780946889E-01   3.4990499973679567E-01
266  1 0.0  8.2442800200450286E+00   7.9487600024578553E-01   1.9108131026635714E+01
267  1 0.0  7.6007869874338860E+00   1.2555299991986224E+00   8.0563599855827739E-01
268  2 0.0  1.2629350034249578E+01   1.0796067031031111E+01   1.2877648024024829E+01
269  1 0.0  1.2069377040473981E+01   1.0256835032111697E+01   1.3506663032796899E+01
270  1 0.0  1.3410164023318842E+01   1.1179099041562456E+01   1.3371222031290101E+01
271  2 0.0  7.4628200114394900E+00   1.5370112026213917E+01   1.9595565024616779E+01
272  1 0.0  6.9523870004027080E+00   1.6058814022450608E+01   1.9080640021934929E+01
273  1 0.0  7.1586259856373182E+00   1.5372924026274545E+01   8.1727100196875679E-01
274  2 0.0  1.2157094036668763E+01   7.4734110170104104E+00   2.6994319978216055E+00
275  1 0.0  1.1277637023743020E+01   7.6440380165546493E+00   2.2550880024534314E+00
276  1 0.0  1.2325944006228752E+01   8.1799449834014606E+00   3.3866719991416523E+00
277  2 0.0  9.1101240021968977E+00   5.5438129992293241E+00   9.6110529905669733E+00
278  1 0.0  9.7637550117706660E+00   4.8693669999502909E+00   9.2677049843462900E+00
279  1 0.0  9.1164340170678511E+00   6.3472299989987206E+00   9.0156679871681362E+00
280  2 0.0  3.8718589974510196E+00   3.0273590022927794E+00   9.7190759979524586E+00
281  1 0.0  3.9593690006888815E+00   3.7998890026251111E+00   9.0901569819260324E+00
282  1 0.0  3.6855630025502291E+00   2.1937199989172949E+00   9.1991339899832045E+00
283  2 0.0  7.7502449935956133E+00   1.3056141031104231E+01   1.5110534026266814E+01
284  1 0.0  8.4087250126850765E+00   1.3107886042353618E+01   1.4359717013487447E+01
285  1 0.0  7.6158210177660512E+00   1.3967580032822417E+01   1.5499391023715011E+01
286  2 0.0  4.0227399981691150E+00   1.2974997050853080E+01   4.4757699981996035E-01
287  1 0.0  4.7454579975103162E+00   1.3632798029748454E+01   2.3549999985479378E-01
288  1 0.0  3.2713310001382436E+00   1.3084044016137238E+01   1.9527714024530319E+01
289  2 0.0  1.3377420019345991E+00   9.5153780158381682E+00   1.1854643014756325E+01
290  1 0.0  2.1058289986727754E+00   8.8891880195942861E+00   1.1720748004464491E+01
291  1 0.0  1.5370230000980809E+00   1.0387654041125298E+01   1.1407989033870020E+01
292  2 0.0  1.1364436003316300E+01   1.8785676026716160E+01   1.0683626028966351E+01
293  1 0.0  1.0796608008891479E+01   1.9545548024608447E+01   1.1000117021824570E+01
294  1 0.0  1.2286407007346648E+01   1.8879502024527437E+01   1.1059347033018923E+01
295  2 0.0  6.7963489931581904E+00   1.7297273024196173E+01   7.2730500263736424E+00
296  1 0.0  6.2259199869175870E+00   1.7857209023193121E+01   6.6721489855876532E+00
297  1 0.0  6.2165059772940658E+00   1.6672620023154714E+01   7.7961099993737681E+00
298  2 0.0  6.0298550156135091E+00   1.2572863013116079E+01   2.3073960000432927E+00
299  1 0.0  6.0547120037160127E+00   1.1597733036334928E+01   2.0871629976116925E+00
300  1 0.0  6.3925330185813269E+00   1.3097823049801454E+01   1.5374079976844355E+00
301  2 0.0  1.6929675022590132E+01   7.6223469898558402E+00   1.8436420026841681E+01
302  1 0.0  1.6970136023087971E+01   8.4802770210174447E+00   1.8948591025168259E+01
303  1 0.0  1.7403315024950583E+01   7.7331019804162384E+00   1.7562693024107396E+01
304  2 0.0  2.6607950023688218E+00   1.5747436024450369E+01   1.6738596022446877E+01
305  1 0.0  3.0004529977043459E+00   1.5280154022750148E+01   1.5922336024118723E+01
306  1 0.0  3.1023900015148267E+00   1.6641028022089699E+01   1.6819140026870670E+01
307  2 0.0  1.0092901012984289E+01   8.5813550008816364E+00   7.2807439983982851E+00
308  1 0.0  9.2440059947293971E+00   8.0823830156644600E+00   7.4553289788743511E+00
309  1 0.0  1.0846658012623957E+01   7.9319220070215248E+00   7.1803099742792540E+00
310  2 0.0  3.1807589976510906E+00   1.5676499988972370E-01   3.8447180011395563E+00
311  1 0.0  2.4971449979410476E+00   4.6958600010741192E-01   3.1853140016014492E+00
312  1 0.0  3.2879659979055775E+00   1.8896334024385993E+01   3.7687640004467000E+00
313  2 0.0  4.4331189978239163E+00   1.0864239025778900E+01   6.0745259859381466E+00
314  1 0.0  4.6003410013275552E+00   1.0128302015721589E+01   6.7305999950132032E+00
315  1 0.0  4.4232390000422601E+00   1.0488714028964399E+01   5.1477660022546523E+00
316  2 0.0  6.1106230154579357E+00   1.9666160008558888E+00   5.0818759995506584E+00
317  1 0.0  6.9477080155241424E+00   2.0959309982824830E+00   5.6134459993323746E+00
318  1 0.0  5.3540979956754500E+00   1.7499050008374841E+00   5.6988900206629989E+00
319  2 0.0  1.5801352022240502E+01   1.7374462023950269E+01   1.4700152026177243E+01
320  1 0.0  1.5273629024346421E+01   1.6896832025436865E+01   1.3997744033314667E+01
321  1 0.0  1.5201388021996667E+01   1.7997924027015390E+01   1.5201489026050474E+01
322  2 0.0  1.7640031024288113E+01   1.2458144009003675E+01   9.8788900020867620E-01
323  1 0.0  1.8287995022217114E+01   1.1697059016296841E+01   1.0177419979636533E+00
324  1 0.0  1.8077217024767389E+01   1.3251694023458976E+01   5.6463400250438656E-01
325  2 0.0  1.7270920025666062E+01   1.7669130023897399E+01   6.1256790066442584E+00
326  1 0.0  1.7777649023788747E+01   1.6892650022625546E+01   5.7511049941913566E+00
327  1 0.0  1.7897745023976739E+01   1.8265652022738433E+01   6.6269289939090790E+00
328  2 0.0  1.2942778043588898E+01   5.3233849738292616E+00   1.6559688024016939E+01
329  1 0.0  1.3827841001109533E+01   5.7122679909208056E+00   1.6815487026639484E+01
330  1 0.0  1.2264637027408314E+01   5.5497479862125338E+00   1.7258891023364907E+01
331  2 0.0  1.9554663024766953E+01   1.8472846024664975E+01   1.5312077024159150E+01
332  1 0.0  4.6243000021659014E-01   1.8255381026500878E+01   1.6050192027063446E+01
333  1 0.0  2.3169599996548240E-01   1.9158914025470477E+01   1.4709664023544482E+01
334  2 0.0  6.8739229852068640E+00   4.7925930021302809E+00   3.5112609995864688E+00
335  1 0.0  6.1767169842252176E+00   5.4651290050678600E+00   3.7594540006035309E+00
336  1 0.0  7.7619609769943274E+00   5.0873940001852516E+00   3.8640790023793441E+00
337  2 0.0  1.9587479983226486E+00   7.1924440076727709E+00   1.6582163026750308E+01
338  1 0.0  1.0057090003745754E+00   6.9128890018808757E+00   1.6698631025038445E+01
339  1 0.0  2.0140950024120872E+00   8.1908320107028789E+00   1.6569616023463187E+01
340  2 0.0  1.6918486025606388E+01   6.6361000053584074E-01   1.9665770024535696E+01
341  1 0.0  1.6566626024064899E+01   4.6604100018190742E-01   8.4983500102232368E-01
342  1 0.0  1.7901484026087868E+01   8.3977299803153782E-01   1.9717541024524483E+01
343  2 0.0  1.2850949975495836E+00   1.8517619025647207E+01   1.0803901023345155E+01
344  1 0.0  1.9180439996506145E+00   1.9290689024332892E+01   1.0762205034369623E+01
345  1 0.0  5.4865999998833270E-01   1.8653675026322315E+01   1.0141215050883909E+01
346  2 0.0  9.2842519852356027E+00   1.0786888029005938E+01   1.6497337026189850E+01
347  1 0.0  8.5064200155723206E+00   1.1394940000165088E+01   1.6338436022077115E+01
348  1 0.0  9.0270279930586135E+00   1.0082584015371987E+01   1.7158994024152495E+01
349  2 0.0  1.0260620025014029E+00   6.6872900155514001E+00   5.7484189965158752E+00
350  1 0.0  5.1248000024482702E-02   6.4752809878695032E+00   5.8176299777950549E+00