Generated by RuNNerUC, original comment lines: 7.1142

36 atoms
2 atom types

0.0 7.1141994570823028E+00 xlo xhi
0.0 7.1141994570823028E+00 ylo yhi
0.0 7.1141994570823028E+00 zlo zhi

Masses

1 1.0079
2 15.9994

Atoms

    1  2 0.0  5.4407725127692641E-01   3.6384185563505054E+00   4.4961925860710092E+00
    2  1 0.0  1.0817027740264313E+00   3.5577846500107415E+00   5.3355115606411010E+00
    3  1 0.0  1.0837528065326016E+00   4.1098074970750078E+00   3.7986666445490349E+00
    4  2 0.0  5.9228924412533273E+00   2.6466268911619726E+00   1.2239688914990485E+00
    5  1 0.0  5.3892796692767426E+00   2.4596400077893872E+00   3.9917001035611654E-01
    6  1 0.0  6.3950052963992130E+00   3.5224871395184847E+00   1.1240808724238647E+00
    7  2 0.0  4.1822746115542317E+00   1.5987872250691670E+00   3.6579743000948359E+00
    8  1 0.0  4.6852014555577082E+00   1.0410418556709500E+00   2.9976878139513659E+00
    9  1 0.0  4.0758623666740457E+00   1.0894620994363380E+00   4.5119446040398223E+00
   10  2 0.0  4.1669385268713892E+00   5.4970302033175118E+00   5.8480726049046048E+00
   11  1 0.0  4.8730244389199040E+00   4.8558002499567277E+00   6.1485166693356534E+00
   12  1 0.0  4.2909305677989407E+00   5.6980826168950580E+00   4.8763704264099701E+00
   13  2 0.0  2.0588829949846374E+00   4.3767096641380583E+00   9.8336312746365173E-01
   14  1 0.0  1.9348592034245695E+00   3.9922343756879437E+00   6.8597241552630556E-02
   15  1 0.0  2.1394708629072521E+00   3.6345576794364582E+00   1.6487320283725717E+00
   16  2 0.0  2.5339931098401118E+00   6.3708832825217518E+00   3.4663091578748157E+00
   17  1 0.0  2.4831571721174011E+00   5.8868847749471091E-02   2.8714017898244730E+00
   18  1 0.0  2.9623271345173623E+00   6.6255006006868298E+00   4.3333102537280004E+00
   19  2 0.0  2.5924978836700570E+00   1.7944388560555977E+00   6.9352523630401910E+00
   20  1 0.0  2.1222678410324201E+00   1.2768680911581454E+00   6.2204075098346969E+00
   21  1 0.0  1.9180281931273930E+00   2.2616218963260346E+00   3.9274315315749969E-01
   22  2 0.0  5.9790312637835585E+00   6.7163127014570758E+00   2.3512729823005811E+00
   23  1 0.0  6.0116037085053753E+00   6.9691212919231109E+00   3.3182411414869546E+00
   24  1 0.0  6.8767703438302163E+00   6.3827294435137851E+00   2.0635471629013606E+00
   25  2 0.0  6.7547865304093548E+00   8.1377929495075468E-02   5.3581116608665873E+00
   26  1 0.0  5.9531825446743918E+00   6.7260222417346471E-01   5.2693136085523262E+00
   27  1 0.0  4.4727592285958784E-01   6.4022081242395790E-01   5.5503336943639905E+00
   28  2 0.0  4.6569264589470469E+00   4.3236993372651531E+00   3.2604100102435756E+00
   29  1 0.0  3.9626142106129842E+00   3.6880495575692027E+00   3.5978666484999993E+00
   30  1 0.0  4.6123792631715030E+00   5.1746062343494730E+00   3.7838306323283333E+00
   31  2 0.0  1.6592261415965956E+00   1.9740050874317887E+00   2.5667232493700953E+00
   32  1 0.0  1.3659958208733727E+00   1.1546249809050639E+00   2.0741439365038556E+00
   33  1 0.0  2.5789980439011053E+00   2.2303030724114246E+00   2.2695177494557641E+00
   34  2 0.0  6.7188326433244958E+00   5.0274902077599082E+00   7.0466394028585562E+00
   35  1 0.0  6.4009802362616730E+00   4.4045226890456011E+00   6.4719907227395035E-01
   36  1 0.0  6.0453043590359563E+00   5.7547786630259594E+00   6.9146816574097389E+00
