begin
comment 19.7309
comment Values for ['energy', 'charge', 'force of atom'] were set to default values
atom    12.171465    -4.001622     2.800136  O      0.000000     0.000000    99.999999    99.999999    99.999999
atom    12.820917    -3.638898     4.537291  H      0.000000     0.000000    99.999999    99.999999    99.999999
atom    13.343551    -3.253388     1.520515  H      0.000000     0.000000    99.999999    99.999999    99.999999
atom     0.730502     9.451979   -12.501532  O      0.000000     0.000000    99.999999    99.999999    99.999999
atom    -0.393719     9.059387   -11.034200  H      0.000000     0.000000    99.999999    99.999999    99.999999
atom     0.473577    11.248334   -13.028944  H      0.000000     0.000000    99.999999    99.999999    99.999999
atom     9.672259    -8.630423    -9.891218  O      0.000000     0.000000    99.999999    99.999999    99.999999
atom    10.688845    -7.047601    -9.711514  H      0.000000     0.000000    99.999999    99.999999    99.999999
atom     8.282717    -8.348145   -11.140440  H      0.000000     0.000000    99.999999    99.999999    99.999999
atom     5.766592    -6.281234    -2.164368  O      0.000000     0.000000    99.999999    99.999999    99.999999
atom     5.399267    -8.072345    -2.641920  H      0.000000     0.000000    99.999999    99.999999    99.999999
atom     4.911638    -5.116581    -3.382442  H      0.000000     0.000000    99.999999    99.999999    99.999999
atom    14.262704    12.927985    -9.947297  O      0.000000     0.000000    99.999999    99.999999    99.999999
atom    13.698483    14.024141   -11.379485  H      0.000000     0.000000    99.999999    99.999999    99.999999
atom    14.865772    11.269493   -10.623150  H      0.000000     0.000000    99.999999    99.999999    99.999999
atom    17.176977    -9.079110     5.817739  O      0.000000     0.000000    99.999999    99.999999    99.999999
atom    16.308013   -10.366745     6.893827  H      0.000000     0.000000    99.999999    99.999999    99.999999
atom    18.592685    -8.294821     6.793305  H      0.000000     0.000000    99.999999    99.999999    99.999999
atom    11.249409     4.340444    -5.171682  O      0.000000     0.000000    99.999999    99.999999    99.999999
atom    12.510114     4.563335    -3.781714  H      0.000000     0.000000    99.999999    99.999999    99.999999
atom    11.746762     2.864974    -6.242519  H      0.000000     0.000000    99.999999    99.999999    99.999999
atom   -15.160305   -12.648385    -8.640998  O      0.000000     0.000000    99.999999    99.999999    99.999999
atom   -16.546149   -13.274846    -7.519371  H      0.000000     0.000000    99.999999    99.999999    99.999999
atom   -13.796342   -13.952160    -8.745137  H      0.000000     0.000000    99.999999    99.999999    99.999999
atom    17.186853   -16.519598   -18.617971  O      0.000000     0.000000    99.999999    99.999999    99.999999
atom    17.789407   -18.299399    18.467182  H      0.000000     0.000000    99.999999    99.999999    99.999999
atom    15.706897   -16.223592    17.530764  H      0.000000     0.000000    99.999999    99.999999    99.999999
atom     5.517543    -6.042524    10.424427  O      0.000000     0.000000    99.999999    99.999999    99.999999
atom     4.401282    -7.394319    11.129886  H      0.000000     0.000000    99.999999    99.999999    99.999999
atom     5.434614    -6.078586     8.536864  H      0.000000     0.000000    99.999999    99.999999    99.999999
atom     3.543361    12.255131    -1.617524  O      0.000000     0.000000    99.999999    99.999999    99.999999
atom     1.893840    11.371971    -1.882432  H      0.000000     0.000000    99.999999    99.999999    99.999999
atom     3.304351    13.686075    -0.406597  H      0.000000     0.000000    99.999999    99.999999    99.999999
atom    17.820046    -6.615546    15.697651  O      0.000000     0.000000    99.999999    99.999999    99.999999
atom    16.190521    -7.157016    16.486653  H      0.000000     0.000000    99.999999    99.999999    99.999999
atom   -18.365935    -8.127455    15.423162  H      0.000000     0.000000    99.999999    99.999999    99.999999
atom    13.782799     8.613680    -3.846796  O      0.000000     0.000000    99.999999    99.999999    99.999999
atom    12.242358     7.587267    -4.227041  H      0.000000     0.000000    99.999999    99.999999    99.999999
atom    15.327293     7.568659    -4.152633  H      0.000000     0.000000    99.999999    99.999999    99.999999
atom     7.096774     5.488330    17.257712  O      0.000000     0.000000    99.999999    99.999999    99.999999
atom     8.563942     5.362391    16.073389  H      0.000000     0.000000    99.999999    99.999999    99.999999
atom     5.543538     4.826429    16.408945  H      0.000000     0.000000    99.999999    99.999999    99.999999
atom    10.646931     9.381557     6.447029  O      0.000000     0.000000    99.999999    99.999999    99.999999
atom    10.417673     7.572460     5.951379  H      0.000000     0.000000    99.999999    99.999999    99.999999
atom     9.274827    10.425390     5.673202  H      0.000000     0.000000    99.999999    99.999999    99.999999
atom    -6.131870     1.787588    -8.280049  O      0.000000     0.000000    99.999999    99.999999    99.999999
atom    -4.754052     1.117609    -9.386309  H      0.000000     0.000000    99.999999    99.999999    99.999999
atom    -5.539105     3.362036    -7.419348  H      0.000000     0.000000    99.999999    99.999999    99.999999
atom    15.186060     4.622657    17.182138  O      0.000000     0.000000    99.999999    99.999999    99.999999
atom    13.892255     4.155190    15.886527  H      0.000000     0.000000    99.999999    99.999999    99.999999
atom    15.891854     3.052915    17.962412  H      0.000000     0.000000    99.999999    99.999999    99.999999
atom   -16.727638    16.542001   -13.214936  O      0.000000     0.000000    99.999999    99.999999    99.999999
atom   -17.988082    15.540989   -12.224823  H      0.000000     0.000000    99.999999    99.999999    99.999999
atom   -15.209300    16.880472   -12.142018  H      0.000000     0.000000    99.999999    99.999999    99.999999
atom    -7.579814    -8.884901    -6.880145  O      0.000000     0.000000    99.999999    99.999999    99.999999
atom    -6.860957    -7.440394    -7.863865  H      0.000000     0.000000    99.999999    99.999999    99.999999
atom    -6.674271   -10.476776    -7.345963  H      0.000000     0.000000    99.999999    99.999999    99.999999
atom    -9.844283    18.420266     9.051036  O      0.000000     0.000000    99.999999    99.999999    99.999999
atom   -11.126460    17.044181     8.868078  H      0.000000     0.000000    99.999999    99.999999    99.999999
atom    -8.921235    18.207781    10.686242  H      0.000000     0.000000    99.999999    99.999999    99.999999
atom   -13.591239   -12.153082    11.158944  O      0.000000     0.000000    99.999999    99.999999    99.999999
atom   -13.219526   -13.490294    12.441426  H      0.000000     0.000000    99.999999    99.999999    99.999999
atom   -12.398535   -12.327247     9.703545  H      0.000000     0.000000    99.999999    99.999999    99.999999
atom    -4.420691   -13.468167     0.410295  O      0.000000     0.000000    99.999999    99.999999    99.999999
atom    -5.734213   -12.613888     1.466673  H      0.000000     0.000000    99.999999    99.999999    99.999999
atom    -3.027649   -14.095127     1.522687  H      0.000000     0.000000    99.999999    99.999999    99.999999
atom    11.752080   -13.911882     7.748763  O      0.000000     0.000000    99.999999    99.999999    99.999999
atom    10.647577   -13.229211     6.375775  H      0.000000     0.000000    99.999999    99.999999    99.999999
atom    10.849160   -13.787043     9.404122  H      0.000000     0.000000    99.999999    99.999999    99.999999
atom    -2.814791    11.824277    -6.742739  O      0.000000     0.000000    99.999999    99.999999    99.999999
atom    -1.020853    11.760535    -7.333318  H      0.000000     0.000000    99.999999    99.999999    99.999999
atom    -2.853146    11.955556    -4.857968  H      0.000000     0.000000    99.999999    99.999999    99.999999
atom   -11.048454    -1.511186     5.901280  O      0.000000     0.000000    99.999999    99.999999    99.999999
atom   -10.626873    -0.616514     7.511527  H      0.000000     0.000000    99.999999    99.999999    99.999999
atom   -10.233294    -0.615189     4.450842  H      0.000000     0.000000    99.999999    99.999999    99.999999
atom    10.124871    -3.470616    15.890089  O      0.000000     0.000000    99.999999    99.999999    99.999999
atom    11.170708    -4.050915    17.353149  H      0.000000     0.000000    99.999999    99.999999    99.999999
atom    11.244513    -2.677209    14.590870  H      0.000000     0.000000    99.999999    99.999999    99.999999
atom    14.025464    14.643378    14.722556  O      0.000000     0.000000    99.999999    99.999999    99.999999
atom    13.345741    16.403923    14.624968  H      0.000000     0.000000    99.999999    99.999999    99.999999
atom    15.260950    14.366533    13.319702  H      0.000000     0.000000    99.999999    99.999999    99.999999
atom     1.691286    -5.802967   -17.256525  O      0.000000     0.000000    99.999999    99.999999    99.999999
atom     1.382820    -7.407906   -18.205257  H      0.000000     0.000000    99.999999    99.999999    99.999999
atom     1.880245    -4.374741   -18.479443  H      0.000000     0.000000    99.999999    99.999999    99.999999
atom    -3.512390   -10.697844    15.355835  O      0.000000     0.000000    99.999999    99.999999    99.999999
atom    -5.128985   -10.223093    16.211579  H      0.000000     0.000000    99.999999    99.999999    99.999999
atom    -3.826455   -12.133845    14.168263  H      0.000000     0.000000    99.999999    99.999999    99.999999
atom     0.822095   -16.376138     3.174007  O      0.000000     0.000000    99.999999    99.999999    99.999999
atom     2.617363   -16.950464     3.308997  H      0.000000     0.000000    99.999999    99.999999    99.999999
atom    -0.160451   -17.617493     2.142158  H      0.000000     0.000000    99.999999    99.999999    99.999999
atom   -12.838503     4.138816   -17.799062  O      0.000000     0.000000    99.999999    99.999999    99.999999
atom   -13.714532     3.967748   -16.133416  H      0.000000     0.000000    99.999999    99.999999    99.999999
atom   -14.112029     4.507719    18.140333  H      0.000000     0.000000    99.999999    99.999999    99.999999
atom    18.229383   -17.703597    -6.744852  O      0.000000     0.000000    99.999999    99.999999    99.999999
atom    16.955842   -16.761024    -7.774762  H      0.000000     0.000000    99.999999    99.999999    99.999999
atom    18.402242   -16.882653    -5.051561  H      0.000000     0.000000    99.999999    99.999999    99.999999
atom    -7.802437     5.048381     0.215873  O      0.000000     0.000000    99.999999    99.999999    99.999999
atom    -9.029412     4.535609     1.558506  H      0.000000     0.000000    99.999999    99.999999    99.999999
atom    -7.702403     3.692816    -1.096950  H      0.000000     0.000000    99.999999    99.999999    99.999999
atom     2.439187   -14.951451    -7.663055  O      0.000000     0.000000    99.999999    99.999999    99.999999
atom     3.221223   -13.614653    -6.580253  H      0.000000     0.000000    99.999999    99.999999    99.999999
atom     2.952296   -16.655931    -7.028598  H      0.000000     0.000000    99.999999    99.999999    99.999999
atom     4.523521   -10.004613     4.189275  O      0.000000     0.000000    99.999999    99.999999    99.999999
atom     5.758523    -8.979676     3.191608  H      0.000000     0.000000    99.999999    99.999999    99.999999
atom     5.265669   -11.703418     4.555805  H      0.000000     0.000000    99.999999    99.999999    99.999999
atom   -17.235275    -6.170269     1.848693  O      0.000000     0.000000    99.999999    99.999999    99.999999
atom   -16.090205    -6.540563     3.305662  H      0.000000     0.000000    99.999999    99.999999    99.999999
atom   -18.209316    -4.589275     2.199072  H      0.000000     0.000000    99.999999    99.999999    99.999999
atom    -3.737071     8.328078   -14.793955  O      0.000000     0.000000    99.999999    99.999999    99.999999
atom    -5.362442     8.608354   -13.871631  H      0.000000     0.000000    99.999999    99.999999    99.999999
atom    -2.598780     7.241011   -13.748181  H      0.000000     0.000000    99.999999    99.999999    99.999999
atom    17.278597     4.167583     9.121774  O      0.000000     0.000000    99.999999    99.999999    99.999999
atom    17.606457     4.893777     7.408235  H      0.000000     0.000000    99.999999    99.999999    99.999999
atom   -18.404553     4.167133    10.122881  H      0.000000     0.000000    99.999999    99.999999    99.999999
atom    -9.561906   -13.560771    -3.302134  O      0.000000     0.000000    99.999999    99.999999    99.999999
atom    -9.612536   -14.919951    -4.614054  H      0.000000     0.000000    99.999999    99.999999    99.999999
atom    -9.380257   -11.878881    -4.144338  H      0.000000     0.000000    99.999999    99.999999    99.999999
atom    14.843239    17.351754     4.932557  O      0.000000     0.000000    99.999999    99.999999    99.999999
atom    16.668851    17.011012     4.583134  H      0.000000     0.000000    99.999999    99.999999    99.999999
atom    14.569308   -18.071120     5.091037  H      0.000000     0.000000    99.999999    99.999999    99.999999
atom    -5.730715   -16.059709     6.541797  O      0.000000     0.000000    99.999999    99.999999    99.999999
atom    -6.308992   -14.519658     7.471798  H      0.000000     0.000000    99.999999    99.999999    99.999999
atom    -4.424550   -15.571869     5.266255  H      0.000000     0.000000    99.999999    99.999999    99.999999
atom    -5.515366    -2.493040    15.761760  O      0.000000     0.000000    99.999999    99.999999    99.999999
atom    -5.520259    -1.910772    13.963982  H      0.000000     0.000000    99.999999    99.999999    99.999999
atom    -3.969058    -3.530539    16.083610  H      0.000000     0.000000    99.999999    99.999999    99.999999
atom     8.025856     4.961553    -9.382628  O      0.000000     0.000000    99.999999    99.999999    99.999999
atom     7.610683     3.451218   -10.439784  H      0.000000     0.000000    99.999999    99.999999    99.999999
atom     9.874900     4.968426    -8.992683  H      0.000000     0.000000    99.999999    99.999999    99.999999
atom     7.946476   -15.232049    -4.191579  O      0.000000     0.000000    99.999999    99.999999    99.999999
atom     9.315874   -16.507366    -4.454984  H      0.000000     0.000000    99.999999    99.999999    99.999999
atom     8.499278   -13.562389    -4.882744  H      0.000000     0.000000    99.999999    99.999999    99.999999
atom    12.120821    -0.296143   -12.511385  O      0.000000     0.000000    99.999999    99.999999    99.999999
atom    12.769998     1.121949   -13.578459  H      0.000000     0.000000    99.999999    99.999999    99.999999
atom    13.441442    -1.641450   -12.380342  H      0.000000     0.000000    99.999999    99.999999    99.999999
atom     6.738671     3.294562    -1.161628  O      0.000000     0.000000    99.999999    99.999999    99.999999
atom     5.386447     4.251914    -2.070490  H      0.000000     0.000000    99.999999    99.999999    99.999999
atom     8.265872     3.159562    -2.266390  H      0.000000     0.000000    99.999999    99.999999    99.999999
atom    14.369680    -4.236630     7.418632  O      0.000000     0.000000    99.999999    99.999999    99.999999
atom    15.630000    -3.284478     8.455969  H      0.000000     0.000000    99.999999    99.999999    99.999999
atom    15.263055    -5.158236     6.031700  H      0.000000     0.000000    99.999999    99.999999    99.999999
atom   -17.308499   -12.858224    -1.351674  O      0.000000     0.000000    99.999999    99.999999    99.999999
atom   -15.862042   -13.158462    -2.530098  H      0.000000     0.000000    99.999999    99.999999    99.999999
atom   -18.376075   -14.414532    -1.255491  H      0.000000     0.000000    99.999999    99.999999    99.999999
atom     9.137574    11.001562    -9.058848  O      0.000000     0.000000    99.999999    99.999999    99.999999
atom     9.667546    12.786945    -9.379162  H      0.000000     0.000000    99.999999    99.999999    99.999999
atom     9.198557    10.649703    -7.203171  H      0.000000     0.000000    99.999999    99.999999    99.999999
atom    -0.460095   -18.094507    16.638105  O      0.000000     0.000000    99.999999    99.999999    99.999999
atom     0.458740    18.493436    18.134647  H      0.000000     0.000000    99.999999    99.999999    99.999999
atom    -0.548089    17.876643    15.283585  H      0.000000     0.000000    99.999999    99.999999    99.999999
atom   -11.709212    17.171059    -0.311228  O      0.000000     0.000000    99.999999    99.999999    99.999999
atom    -9.917407    16.987253     0.260361  H      0.000000     0.000000    99.999999    99.999999    99.999999
atom   -11.913077    16.371988    -2.011521  H      0.000000     0.000000    99.999999    99.999999    99.999999
atom    14.592913     5.920030   -13.065198  O      0.000000     0.000000    99.999999    99.999999    99.999999
atom    15.944555     4.599559   -13.087238  H      0.000000     0.000000    99.999999    99.999999    99.999999
atom    14.343705     6.595509   -14.812391  H      0.000000     0.000000    99.999999    99.999999    99.999999
atom    -4.753576    17.704109   -14.499311  O      0.000000     0.000000    99.999999    99.999999    99.999999
atom    -3.077910    18.339146   -15.099261  H      0.000000     0.000000    99.999999    99.999999    99.999999
atom    -6.112450   -18.388553   -15.047655  H      0.000000     0.000000    99.999999    99.999999    99.999999
atom   -15.693618     8.207483     4.658165  O      0.000000     0.000000    99.999999    99.999999    99.999999
atom   -14.299748     7.104915     4.015878  H      0.000000     0.000000    99.999999    99.999999    99.999999
atom   -17.261688     7.176186     4.878738  H      0.000000     0.000000    99.999999    99.999999    99.999999
atom    -2.802158     2.850718   -13.903620  O      0.000000     0.000000    99.999999    99.999999    99.999999
atom    -2.781074     2.419530   -15.743374  H      0.000000     0.000000    99.999999    99.999999    99.999999
atom    -3.014104     1.270771   -12.888773  H      0.000000     0.000000    99.999999    99.999999    99.999999
atom     2.830239     9.128384    10.873864  O      0.000000     0.000000    99.999999    99.999999    99.999999
atom     1.607911     9.725750     9.562324  H      0.000000     0.000000    99.999999    99.999999    99.999999
atom     4.306121     8.303232    10.030088  H      0.000000     0.000000    99.999999    99.999999    99.999999
atom    -7.744786    11.718041    16.170487  O      0.000000     0.000000    99.999999    99.999999    99.999999
atom    -6.711260    10.753789    17.424724  H      0.000000     0.000000    99.999999    99.999999    99.999999
atom    -7.031573    11.464643    14.438961  H      0.000000     0.000000    99.999999    99.999999    99.999999
atom   -16.767604    13.019565    14.478277  O      0.000000     0.000000    99.999999    99.999999    99.999999
atom   -15.909468    13.375470    12.832677  H      0.000000     0.000000    99.999999    99.999999    99.999999
atom   -17.851479    11.481447    14.303719  H      0.000000     0.000000    99.999999    99.999999    99.999999
atom   -11.243814     0.536690    11.050412  O      0.000000     0.000000    99.999999    99.999999    99.999999
atom   -10.324900     1.129198     9.509115  H      0.000000     0.000000    99.999999    99.999999    99.999999
atom   -12.767477    -0.454326    10.533301  H      0.000000     0.000000    99.999999    99.999999    99.999999
atom    10.509821   -16.706810    -8.858528  O      0.000000     0.000000    99.999999    99.999999    99.999999
atom     9.971404   -14.961260    -8.374556  H      0.000000     0.000000    99.999999    99.999999    99.999999
atom    12.133036   -16.620810    -9.822292  H      0.000000     0.000000    99.999999    99.999999    99.999999
atom     7.937753     1.096463    12.487545  O      0.000000     0.000000    99.999999    99.999999    99.999999
atom     6.733332    -0.263823    11.967876  H      0.000000     0.000000    99.999999    99.999999    99.999999
atom     9.675152     0.664169    11.882866  H      0.000000     0.000000    99.999999    99.999999    99.999999
atom    10.320036   -10.509655    15.043239  O      0.000000     0.000000    99.999999    99.999999    99.999999
atom     9.564248   -11.039274    16.692283  H      0.000000     0.000000    99.999999    99.999999    99.999999
atom    10.427894   -12.003618    13.891061  H      0.000000     0.000000    99.999999    99.999999    99.999999
atom   -15.154511    -7.498036   -12.823381  O      0.000000     0.000000    99.999999    99.999999    99.999999
atom   -13.356291    -7.493628   -13.404288  H      0.000000     0.000000    99.999999    99.999999    99.999999
atom   -15.861282    -9.244005   -12.975461  H      0.000000     0.000000    99.999999    99.999999    99.999999
atom     9.415158   -18.425956    12.555762  O      0.000000     0.000000    99.999999    99.999999    99.999999
atom     8.603220    17.254339    11.977995  H      0.000000     0.000000    99.999999    99.999999    99.999999
atom    11.179076   -18.334866    11.883924  H      0.000000     0.000000    99.999999    99.999999    99.999999
atom     5.141195    -3.064387    14.694427  O      0.000000     0.000000    99.999999    99.999999    99.999999
atom     5.522362    -4.016738    13.107354  H      0.000000     0.000000    99.999999    99.999999    99.999999
atom     4.211939    -4.188682    15.895889  H      0.000000     0.000000    99.999999    99.999999    99.999999
atom   -17.786930    11.414681    -9.842778  O      0.000000     0.000000    99.999999    99.999999    99.999999
atom    18.370897     9.921136   -10.103173  H      0.000000     0.000000    99.999999    99.999999    99.999999
atom    18.456666    12.990159    -9.792629  H      0.000000     0.000000    99.999999    99.999999    99.999999
atom   -10.225943    -2.155839   -11.051511  O      0.000000     0.000000    99.999999    99.999999    99.999999
atom    -8.816759    -3.250342   -10.429155  H      0.000000     0.000000    99.999999    99.999999    99.999999
atom   -11.881785    -2.910150   -10.541344  H      0.000000     0.000000    99.999999    99.999999    99.999999
atom   -16.414048    17.601474    10.149500  O      0.000000     0.000000    99.999999    99.999999    99.999999
atom   -17.916718    16.708524     9.431385  H      0.000000     0.000000    99.999999    99.999999    99.999999
atom   -15.861681    16.731187    11.733342  H      0.000000     0.000000    99.999999    99.999999    99.999999
atom    -4.124656    -8.290578     8.006048  O      0.000000     0.000000    99.999999    99.999999    99.999999
atom    -4.124238    -9.852805     9.069304  H      0.000000     0.000000    99.999999    99.999999    99.999999
atom    -5.443220    -8.444370     6.661132  H      0.000000     0.000000    99.999999    99.999999    99.999999
atom     4.806568    15.884019     9.597996  O      0.000000     0.000000    99.999999    99.999999    99.999999
atom     5.566283    14.482062    10.612103  H      0.000000     0.000000    99.999999    99.999999    99.999999
atom     3.677628    16.920783    10.703292  H      0.000000     0.000000    99.999999    99.999999    99.999999
atom   -18.414587     1.058689   -14.351245  O      0.000000     0.000000    99.999999    99.999999    99.999999
atom   -16.904760     2.142607   -14.009778  H      0.000000     0.000000    99.999999    99.999999    99.999999
atom    18.537629    -0.046047   -12.854824  H      0.000000     0.000000    99.999999    99.999999    99.999999
atom    -6.451996    17.312845    -6.790580  O      0.000000     0.000000    99.999999    99.999999    99.999999
atom    -6.211488    18.159741    -8.462700  H      0.000000     0.000000    99.999999    99.999999    99.999999
atom    -7.882129    18.134517    -5.868280  H      0.000000     0.000000    99.999999    99.999999    99.999999
atom    -2.606546     8.926645     5.457399  O      0.000000     0.000000    99.999999    99.999999    99.999999
atom    -1.279766     8.800492     4.117696  H      0.000000     0.000000    99.999999    99.999999    99.999999
atom    -3.506185    10.580934     5.299132  H      0.000000     0.000000    99.999999    99.999999    99.999999
atom   -14.466271     2.402093    -3.892414  O      0.000000     0.000000    99.999999    99.999999    99.999999
atom   -15.395782     3.541921    -2.705880  H      0.000000     0.000000    99.999999    99.999999    99.999999
atom   -15.538591     2.064586    -5.411389  H      0.000000     0.000000    99.999999    99.999999    99.999999
atom   -15.617273    -5.947475     8.690567  O      0.000000     0.000000    99.999999    99.999999    99.999999
atom   -16.030515    -4.683025     7.348380  H      0.000000     0.000000    99.999999    99.999999    99.999999
atom   -17.046120    -7.172008     8.863704  H      0.000000     0.000000    99.999999    99.999999    99.999999
atom    -1.362273    13.864728   -15.347277  O      0.000000     0.000000    99.999999    99.999999    99.999999
atom    -1.129317    13.992116   -17.218257  H      0.000000     0.000000    99.999999    99.999999    99.999999
atom    -2.549894    15.215253   -14.767013  H      0.000000     0.000000    99.999999    99.999999    99.999999
atom     2.186124    -5.314813     1.485960  O      0.000000     0.000000    99.999999    99.999999    99.999999
atom     0.975008    -4.378463     0.378026  H      0.000000     0.000000    99.999999    99.999999    99.999999
atom     3.218746    -6.496321     0.432965  H      0.000000     0.000000    99.999999    99.999999    99.999999
atom     3.200512     0.240103   -14.980861  O      0.000000     0.000000    99.999999    99.999999    99.999999
atom     1.739404     0.522173   -13.816100  H      0.000000     0.000000    99.999999    99.999999    99.999999
atom     4.646260     1.337503   -14.454944  H      0.000000     0.000000    99.999999    99.999999    99.999999
atom    14.030120     7.773181    12.503492  O      0.000000     0.000000    99.999999    99.999999    99.999999
atom    15.134510     8.074482    14.007022  H      0.000000     0.000000    99.999999    99.999999    99.999999
atom    14.859508     6.524495    11.352855  H      0.000000     0.000000    99.999999    99.999999    99.999999
atom    -6.282948   -16.834327    16.514436  O      0.000000     0.000000    99.999999    99.999999    99.999999
atom    -7.189850   -16.723929    18.168645  H      0.000000     0.000000    99.999999    99.999999    99.999999
atom    -5.691725   -18.607672    16.237368  H      0.000000     0.000000    99.999999    99.999999    99.999999
atom   -16.372483    16.642415    18.272858  O      0.000000     0.000000    99.999999    99.999999    99.999999
atom   -15.375611    17.034628    16.716105  H      0.000000     0.000000    99.999999    99.999999    99.999999
atom   -15.636227    17.573230   -17.542484  H      0.000000     0.000000    99.999999    99.999999    99.999999
atom     3.994407    17.055963    -4.408038  O      0.000000     0.000000    99.999999    99.999999    99.999999
atom     3.208602    16.259549    -2.885113  H      0.000000     0.000000    99.999999    99.999999    99.999999
atom     5.080839    18.505835    -3.870821  H      0.000000     0.000000    99.999999    99.999999    99.999999
atom   -11.551129    -1.430065    16.553916  O      0.000000     0.000000    99.999999    99.999999    99.999999
atom    -9.850785    -1.033846    15.830795  H      0.000000     0.000000    99.999999    99.999999    99.999999
atom   -11.734568    -3.301306    16.743308  H      0.000000     0.000000    99.999999    99.999999    99.999999
atom    -0.636465    -0.592679   -18.291916  O      0.000000     0.000000    99.999999    99.999999    99.999999
atom    -1.193158     1.009427   -17.458598  H      0.000000     0.000000    99.999999    99.999999    99.999999
atom    -0.872190    -2.038480   -17.098115  H      0.000000     0.000000    99.999999    99.999999    99.999999
atom     8.877533    -6.842821   -17.125815  O      0.000000     0.000000    99.999999    99.999999    99.999999
atom     7.709434    -5.951917   -15.937158  H      0.000000     0.000000    99.999999    99.999999    99.999999
atom    10.320344    -7.582369   -16.155029  H      0.000000     0.000000    99.999999    99.999999    99.999999
atom    -5.531846   -12.201676   -13.181734  O      0.000000     0.000000    99.999999    99.999999    99.999999
atom    -4.683716   -11.134750   -11.872764  H      0.000000     0.000000    99.999999    99.999999    99.999999
atom    -6.387597   -11.086993   -14.445155  H      0.000000     0.000000    99.999999    99.999999    99.999999
atom    11.776271    12.998757     1.458315  O      0.000000     0.000000    99.999999    99.999999    99.999999
atom    11.366323    14.487226     2.548025  H      0.000000     0.000000    99.999999    99.999999    99.999999
atom    12.564795    11.643784     2.513464  H      0.000000     0.000000    99.999999    99.999999    99.999999
atom   -16.124277     6.813523   -13.541944  O      0.000000     0.000000    99.999999    99.999999    99.999999
atom   -17.132631     5.646099   -12.450427  H      0.000000     0.000000    99.999999    99.999999    99.999999
atom   -14.887990     5.811974   -14.561532  H      0.000000     0.000000    99.999999    99.999999    99.999999