Generated by RuNNerUC, original comment lines: 7.1142

36 atoms
2 atom types

#-4.0 4.0 xlo xhi
#-4.0 4.0 ylo yhi
#-4.0 4.0 zlo zhi
0.0 7.1142 xlo xhi
0.0 7.1142 ylo yhi
0.0 7.1142 zlo zhi

Masses

1 1.0079
2 15.9994

Atoms

    1  2 0.0     0.544077    -3.475781    -2.618007
    2  1 0.0     1.081703    -3.556415    -1.778688
    3  1 0.0     1.083753    -3.004392    -3.315533
    4  2 0.0    -1.191307     2.646627     1.223969
    5  1 0.0    -1.724920     2.459640     0.399170
    6  1 0.0    -0.719194     3.522487     1.124081
    7  2 0.0    -2.931925     1.598787    -3.456225
    8  1 0.0    -2.428998     1.041042     2.997688
    9  1 0.0    -3.038337     1.089462    -2.602255
   10  2 0.0    -2.947261    -1.617169    -1.266127
   11  1 0.0    -2.241175    -2.258399    -0.965683
   12  1 0.0    -2.823269    -1.416117    -2.237829
   13  2 0.0     2.058883    -2.737490     0.983363
   14  1 0.0     1.934859    -3.121965     0.068597
   15  1 0.0     2.139471    -3.479642     1.648732
   16  2 0.0     2.533993    -0.743316     3.466309
   17  1 0.0     2.483157     0.058869     2.871402
   18  1 0.0     2.962327    -0.488699    -2.780889
   19  2 0.0     2.592498     1.794439    -0.178947
   20  1 0.0     2.122268     1.276868    -0.893792
   21  1 0.0     1.918028     2.261622     0.392743
   22  2 0.0    -1.135168    -0.397887     2.351273
   23  1 0.0    -1.102596    -0.145078     3.318241
   24  1 0.0    -0.237429    -0.731470     2.063547
   25  2 0.0    -0.359413     0.081378    -1.756088
   26  1 0.0    -1.161017     0.672602    -1.844886
   27  1 0.0     0.447276     0.640221    -1.563866
   28  2 0.0    -2.457273    -2.790500     3.260410
   29  1 0.0    -3.151585    -3.426150    -3.516333
   30  1 0.0    -2.501820    -1.939593    -3.330369
   31  2 0.0     1.659226     1.974005     2.566723
   32  1 0.0     1.365996     1.154625     2.074144
   33  1 0.0     2.578998     2.230303     2.269518
   34  2 0.0    -0.395367    -2.086709    -0.067560
   35  1 0.0    -0.713219    -2.709677     0.647199
   36  1 0.0    -1.068895    -1.359421    -0.199518
