################################################################################
# Symmetry function scaling data.
################################################################################
# Col  Name     Description
################################################################################
# 1    e_index  Element index.
# 2    sf_index Symmetry function index.
# 3    sf_min   Symmetry function minimum.
# 4    sf_max   Symmetry function maximum.
# 5    sf_mean  Symmetry function mean.
# 6    sf_sigma Symmetry function sigma.
#########################################################################################################################
#        1          2                        3                        4                        5                        6
#  e_index   sf_index                   sf_min                   sf_max                  sf_mean                 sf_sigma
#########################################################################################################################
         1          1   9.0599751834064462E-06   1.0532468503252377E-04   3.6847021293483695E-05   1.7835227890378932E-05
         1          2   9.7407364273680996E-01   1.3707738052511547E+00   1.1369440745957249E+00   7.8204475954241709E-02
         1          3   7.1848939224232087E-04   4.4674859070114635E-03   2.0895924503338882E-03   7.3120307120467013E-04
         1          4   3.0839567122259073E+00   3.7813435073058117E+00   3.4528586198914479E+00   1.4064243940317567E-01
         1          5   2.2189388498896366E-02   7.9061298236177760E-02   4.6882111087211222E-02   1.1334173255596658E-02
         1          6   3.8952165155842446E+00   4.3441311727516876E+00   4.1103871329683823E+00   1.0081266947910963E-01
         1          7   2.6712677530189693E-01   5.9473970044295343E-01   4.2213464431656134E-01   6.6280004153615041E-02
         1          8   1.7488245369534026E+00   2.9970797892758503E+00   2.4245345856012994E+00   3.3547211267557536E-01
         1          9   1.2449429394722327E+00   1.9865309035277547E+00   1.5467135618608825E+00   1.4014804188096744E-01
         1         10   1.1223156151012463E+00   2.5212331659045928E+00   1.7587293340594636E+00   3.2461918457849548E-01
         1         11   2.1481809886285519E+00   2.6220186753539636E+00   2.3310995299236956E+00   8.8131868940220931E-02
         1         12   1.7776050347753969E+00   2.3809724095942562E+00   2.0364639196570287E+00   1.3155538475628456E-01
         1         13   1.3332847701336623E+00   1.5746629195008046E+00   1.4563536842862854E+00   4.2017894226929468E-02
         1         14   1.2858206220015151E+00   2.0264861435690973E+00   1.6934105509660407E+00   1.7102915724852694E-01
         1         15   2.9294864910145713E-01   4.4946746329067461E-01   3.8841663360361056E-01   2.7956119240281952E-02
         1         16   5.7872135122682389E-01   9.8756180790304138E-01   8.3451027680267298E-01   1.0555635785949488E-01
         1         17   3.8741023011800976E-02   7.2203189636502851E-02   5.8498155834017969E-02   7.5296916290790395E-03
         1         18   2.0277259701907910E-01   3.0112576816621911E-01   2.5147215506855936E-01   2.3499268876717615E-02
         1         19   3.7801436874671274E-02   7.0536882716121616E-02   4.9634849414845909E-02   6.1773772857436219E-03
         1         20   5.0064324676730065E-01   7.4508315795400393E-01   6.0180452708486698E-01   5.1996620314566748E-02
         1         21   2.1149505846062624E+00   3.0086297694152000E+00   2.4747104151629071E+00   1.7292530958618138E-01
         1         22   1.1394588610202364E-01   2.1081557230804168E-01   1.4831150247830033E-01   1.8362267327821234E-02
         1         23   2.7720108269028829E+00   3.8299737046031521E+00   3.2180772088958478E+00   2.3336401126513592E-01
         1         24   3.6286754324115291E+00   5.7694079721003462E+00   4.5677164220944064E+00   4.0055418877080567E-01
         1         25   4.7719054215943890E-05   1.2246818750522625E-04   7.4309480650870677E-05   1.4049426561453405E-05
         1         26   4.4333857694920020E-03   1.0168132968853891E-02   6.4777145172573080E-03   1.0560078551356844E-03
         1         27   1.8935344189773001E-01   2.9276868067133288E-01   2.3061829866368194E-01   1.9869300862039422E-02
         1         28   2.7495263408916379E-02   5.1213942108459864E-02   3.6085221024876483E-02   4.5471765030752828E-03
         1         29   1.5310085616939013E+00   2.1188212216180511E+00   1.7827060035919859E+00   1.2407502507443292E-01
         1         30   9.1939368654489051E-01   1.5687613774310853E+00   1.2194589135682266E+00   1.1985456906858123E-01
         1         31   1.1384194008436651E-02   2.3126249430002542E-02   1.5575425703929389E-02   2.2146366574977514E-03
         1         32   2.0448065764191017E-01   3.1629369745824271E-01   2.5154663060838439E-01   2.3850462668789839E-02
         1         33   1.1626342355721453E+00   1.6596585560150425E+00   1.3609763259982424E+00   9.7025354891777368E-02
         1         34   3.4316641363009756E-02   6.9456153312452168E-02   4.6556693792454314E-02   6.6083772055404314E-03
         1         35   1.2570958839654809E+00   1.7927721704892277E+00   1.4803334101702978E+00   1.1860808472660937E-01
         1         36   1.9184389026233208E+00   3.1127425453883695E+00   2.4371296559244371E+00   2.2052811165981689E-01
         1         37   1.3666602477642234E-05   3.6887119050541202E-05   2.2035946317575084E-05   4.3651698230108264E-06
         1         38   1.5546007659583995E-03   3.7299211557247167E-03   2.3070975415581162E-03   3.9808430326865427E-04
         1         39   9.5479248087773042E-02   1.4915614707917210E-01   1.1672777818282751E-01   1.0800506748273427E-02
         1         40   8.2256292725268500E-03   1.6899821492838266E-02   1.1302096732556745E-02   1.6295481703454669E-03
         1         41   7.1803116051488314E-01   1.0254065821299485E+00   8.4691642411810897E-01   6.5464610909852491E-02
         1         42   4.3595215959198236E-01   7.9518024924121511E-01   5.9831255803436068E-01   6.6317667245823150E-02
         1         43   1.6018052377239511E-06   6.3139472908861473E-06   3.1301163360828333E-06   8.9765713700449726E-07
         1         44   5.5894373857206029E-04   1.2582981249606507E-03   8.3605542167432918E-04   1.3725912741223585E-04
         1         45   1.9834153225893613E-02   3.6953383616309524E-02   2.6655881843534079E-02   3.2893647917617581E-03
         1         46   4.8532464966417669E-06   1.9377662342507579E-05   9.3658745542551994E-06   2.6969170145130577E-06
         1         47   5.7210047587520239E-03   1.1312250481264770E-02   7.9476527861615139E-03   1.1714188135300483E-03
         1         48   3.3967605349763015E-02   6.3249588182648642E-02   4.5545662343088468E-02   5.6959930803432901E-03
         1         49   1.5639262624940832E-09   8.3504433474424355E-09   3.7442340287849444E-09   1.1995146772038509E-09
         1         50   7.8957248103475180E-07   2.9544681844059143E-06   1.5151455992697574E-06   3.9867319456010806E-07
         1         51   7.2498799380692344E-04   1.3809328629292364E-03   9.6644345650243675E-04   1.3123931111184856E-04
         1         52   1.1513160050255675E-06   4.7893410133550682E-06   2.2589402933267828E-06   6.5898376566605286E-07
         1         53   3.6899770288464731E-03   7.1094664560615601E-03   5.0980228781949671E-03   7.3353667640361706E-04
         1         54   4.7965507914503394E-03   9.9638635159889875E-03   6.7789560394143668E-03   9.7722280949141403E-04
         1         55   1.5451956482050935E+00   2.3220436338643187E+00   1.8415448061529174E+00   1.4900811986126986E-01
         1         56   1.0376025533554987E+01   1.3514156671640476E+01   1.1711913234153355E+01   6.9043448028831678E-01
         1         57   1.5701057712031099E+01   2.1962128408086549E+01   1.8503912750199721E+01   1.2048466878386217E+00
         1         58   1.2864599135285186E+00   1.9362796091456056E+00   1.5296352202317260E+00   1.2444939857330058E-01
         1         59   1.0320708418905129E+01   1.3479378639347576E+01   1.1669078130198951E+01   6.9581154676795942E-01
         1         60   1.3090165473148904E+01   1.8879509137434660E+01   1.5695674905250963E+01   1.0931378423265394E+00
         1         61   4.3949671163273263E-01   6.6160243665646212E-01   5.2723334425502644E-01   4.2993883711551627E-02
         1         62   2.9890536869213795E+00   3.9500888865673107E+00   3.3855167809122944E+00   2.0324895614206293E-01
         1         63   4.2275144808489786E+00   6.1612946214333197E+00   5.0958280611414715E+00   3.6862169589362698E-01
         1         64   1.9185607361878140E-01   2.8944064348772180E-01   2.2731439323863328E-01   1.8996742597550752E-02
         1         65   2.9026605370229643E+00   3.8497469707096532E+00   3.3051920388798006E+00   1.9911530882407882E-01
         1         66   2.3438496537639133E+00   3.5204619280878218E+00   2.8884010974233130E+00   2.1832718765519660E-01
         1         67   6.9283609471405916E-01   1.1058987063631822E+00   8.4968265286534050E-01   7.8761639155134011E-02
         1         68   5.6199553705237939E+00   7.4791069644037558E+00   6.4024365024328151E+00   4.1010868641999793E-01
         1         69   1.0122784690107938E+01   1.4291263786081894E+01   1.1953107220137367E+01   8.1231683230931084E-01
         1         70   5.7630325723191311E-01   9.2120973806494932E-01   7.0451206294375823E-01   6.5503757358976997E-02
         1         71   5.5816677967841990E+00   7.4524531203782844E+00   6.3701823389995207E+00   4.1337199146855530E-01
         1         72   8.1814308596272944E+00   1.2046187228492554E+01   9.8959454279237047E+00   7.3693018572151103E-01
         1         73   1.9683621110198210E-01   3.1483962875013100E-01   2.4341849856766934E-01   2.2785709321535789E-02
         1         74   1.6224327804059309E+00   2.2000746987409401E+00   1.8576991122906534E+00   1.2119788736172307E-01
         1         75   2.6824556989527610E+00   3.9796129564866711E+00   3.2536477391535144E+00   2.5391823361140226E-01
         1         76   8.5437320410141335E-02   1.3697848298848497E-01   1.0393883860134831E-01   9.8598667429721076E-03
         1         77   1.5658995991452909E+00   2.1246128383334915E+00   1.8015087956004561E+00   1.1834810393074914E-01
         1         78   1.3424688092108366E+00   2.1185521226749651E+00   1.6933096448820455E+00   1.4372755682490559E-01
         1         79   1.8399604045159020E-03   4.6078436172890943E-03   2.8732492264063698E-03   5.3669875232077767E-04
         1         80   8.3119007268670692E-02   1.4143987144302417E-01   1.0720479470296078E-01   1.2233438802574366E-02
         1         81   8.2986229100932296E-01   1.1659993267145716E+00   9.5731232407073352E-01   6.2937506381833083E-02
         1         82   1.5195998543626856E-03   3.8170540359299251E-03   2.3668873493119533E-03   4.3917065596871843E-04
         1         83   8.3135091173794834E-02   1.3792368162367838E-01   1.0504414743580960E-01   1.1948444459807526E-02
         1         84   5.9272476782117633E-01   8.5144251489636924E-01   6.9438400963164004E-01   5.0523816606940684E-02
         1         85   5.1242702350366416E-04   1.3164833282719036E-03   8.2580897561123127E-04   1.6044356357126959E-04
         1         86   2.4177855790506322E-02   4.2547629449549901E-02   3.2115297327594369E-02   3.6713016163429746E-03
         1         87   2.0122938661082104E-01   3.1075655422908821E-01   2.4139090930899207E-01   2.1214491900173285E-02
         1         88   2.2132439378046753E-04   5.5088453823861586E-04   3.3668003207199551E-04   6.2376803338714344E-05
         1         89   2.3027980736970731E-02   3.8841317908682095E-02   2.9292718346934220E-02   3.3895769533308483E-03
         1         90   5.2372336035986067E-02   9.0714868461914608E-02   6.8656095125797290E-02   7.2445739677853699E-03
         2          1   4.0474971172859375E-01   7.5006567516921141E-01   5.6847203729786289E-01   6.0430206098973947E-02
         2          2   1.3353906173596941E+00   1.9806788567435800E+00   1.7264293099457240E+00   1.1122407155181575E-01
         2          3   2.7536142595336688E-01   1.6894860339160622E+00   9.4702751302538668E-01   2.2067010751820629E-01
         2          4   1.5876722829708276E+00   2.4217772337436250E+00   2.0551935664841907E+00   1.2712120842701072E-01
         2          5   1.4511042760308039E+00   3.5922343911407895E+00   2.7594257532435185E+00   3.7513591802478241E-01
         2          6   8.5814050322534008E-01   1.6441451598733150E+00   1.2122672928006499E+00   1.7190521428635075E-01
         2          7   3.0078311930034207E+00   4.2487019279912417E+00   3.6580019562692985E+00   2.6991737605934646E-01
         2          8   6.1100547250486881E-01   1.1886079210423468E+00   8.7936466702973193E-01   1.1360805119566658E-01
         2          9   2.3721421380267560E+00   4.1224470139175295E+00   2.9755098267290170E+00   2.8098369790821254E-01
         2         10   5.6108720328738515E-01   1.4458120707216493E+00   1.0182319598285143E+00   1.9514169765972211E-01
         2         11   1.5109081390331573E+00   2.8788713701577131E+00   2.2108452631677902E+00   3.1011945809769842E-01
         2         12   6.1792055810799951E-01   1.1603464814608018E+00   8.4670527548302033E-01   1.2995048804049239E-01
         2         13   1.0615056624169903E+00   1.8857477549274451E+00   1.4396598836902499E+00   1.7317124283867735E-01
         2         14   3.3270237895325316E-01   5.4191124490734865E-01   4.1725513840133654E-01   4.3778794272663589E-02
         2         15   5.3998480145205807E-01   9.2791508619766505E-01   7.1227247840008601E-01   6.3682279386800475E-02
         2         16   7.6412956388620737E-02   1.7328848000985472E-01   1.2573607753427962E-01   2.7267517483163188E-02
         2         17   1.6484707519840647E-01   3.9009224653142693E-01   2.6521305089996355E-01   4.3286456399156438E-02
         2         18   3.7035009562869869E-01   6.7340728612781997E-01   4.9412274857479349E-01   5.1089795554996750E-02
         2         19   1.2029190895961794E+00   1.9737544680797463E+00   1.5968227035810043E+00   1.2581845339982933E-01
         2         20   5.1973156450199876E-01   1.3018517286558235E+00   8.7456817249090357E-01   1.3694358773060589E-01
         2         21   3.3842258746633946E-01   6.2519118150691044E-01   4.6084768542038501E-01   4.6068154352973095E-02
         2         22   4.6697488042548967E+00   6.4166565216867095E+00   5.4456041336763104E+00   3.1869234590804141E-01
         2         23   1.8677358418035859E+00   3.2822728183389374E+00   2.4780580508547643E+00   2.4609190542745871E-01
         2         24   5.6392866964169418E-02   1.0506481202213021E-01   7.5697740272969966E-02   7.4355551695657442E-03
         2         25   4.3065975423585187E-02   1.3036115047831265E-01   8.2943455920119563E-02   1.4889586170872608E-02
         2         26   5.2816130547570358E-03   6.2287415311249983E-02   2.5593847758110935E-02   9.5708091233592200E-03
         2         27   3.6712465685067787E-02   7.9259568522760809E-02   5.5284621941296901E-02   7.3475243523463607E-03
         2         28   2.1141609301816793E+00   2.7488986070800467E+00   2.3742455069141082E+00   1.2963195224978738E-01
         2         29   6.2712628223859967E-01   1.0738921139460176E+00   8.0573045811556032E-01   7.7971825073561624E-02
         2         30   1.6607907847763750E-01   3.3826739218472412E-01   2.3692128148627453E-01   2.8810363549667796E-02
         2         31   5.9757981452146103E-01   1.0636712565134818E+00   8.3959217727950808E-01   7.6316933142156887E-02
         2         32   2.1736066482646962E-01   6.3251543867608828E-01   4.0207599705127850E-01   7.0819648650691736E-02
         2         33   1.3563987111899592E-01   2.7914311585597928E-01   1.9604872870839601E-01   2.2548910149264859E-02
         2         34   2.4464500593819603E+00   3.5955968335220403E+00   2.9585138046431703E+00   1.9850715242022274E-01
         2         35   8.0832094385969366E-01   1.5774770035410108E+00   1.1449938485700750E+00   1.3052879241406398E-01
         2         36   2.8167007928499379E-02   5.4686841405124267E-02   3.8909334876594120E-02   4.3685799270080988E-03
         2         37   1.8331399003310857E-02   6.1497188402318569E-02   3.7307975732735560E-02   6.9262760890092985E-03
         2         38   1.8896568313787345E-03   2.6897417454648510E-02   1.0257940854010539E-02   4.1488575001855516E-03
         2         39   1.2849094460607868E-02   3.0518949214805757E-02   2.0315313896012280E-02   2.9816385781476834E-03
         2         40   1.1200069428594481E+00   1.5052341251528869E+00   1.2644868420755850E+00   7.5320733889476812E-02
         2         41   2.7035646948676628E-01   4.8489183467683122E-01   3.6349586483938456E-01   3.8377617987959349E-02
         2         42   5.3053949124328467E-04   2.7155325962249441E-03   1.4693706396216894E-03   3.8959415772760398E-04
         2         43   6.7401629277260445E-03   2.3201286281629055E-02   1.4640944577609231E-02   2.8410089366967136E-03
         2         44   6.2382619651656492E-04   5.2265286032864115E-03   2.3699618414709622E-03   6.7793659350880262E-04
         2         45   2.6923091933240498E-04   1.4956100254684115E-03   7.2655641233726985E-04   2.0295830894179645E-04
         2         46   3.2691667338044857E-02   9.0678442175656959E-02   5.7560599609013295E-02   9.2644559468724255E-03
         2         47   2.5937848143038644E-03   1.2533306717853503E-02   6.9449698875901468E-03   1.7521094867609481E-03
         2         48   1.1065671090876766E-04   5.4798479633027836E-04   2.9144248910504839E-04   7.1966742641758183E-05
         2         49   4.2464545684178493E-05   2.8233031802457761E-04   1.3361662448779278E-04   3.5206701689486322E-05
         2         50   1.3985409801474949E-06   8.0809588283116995E-05   1.9431382375333417E-05   1.1895376337492372E-05
         2         51   9.3054019716473300E-06   4.5823632299949424E-05   2.0833880149240343E-05   5.6751784807832930E-06
         2         52   1.4127772597413957E-02   3.2356665294159384E-02   2.1092417412416038E-02   2.8295007137647469E-03
         2         53   9.3446004825515315E-04   3.6559524548675703E-03   1.8978259865259015E-03   4.5497373887398002E-04
         2         54   4.0561647183293212E+00   5.3511577891440121E+00   4.6299711825673757E+00   2.2607822910414077E-01
         2         55   1.3598851789599250E+01   1.7522575343380126E+01   1.5225011184328469E+01   7.5455973105835539E-01
         2         56   1.0186356996981472E+01   1.5257814554190917E+01   1.2478419186183251E+01   9.1756486891400846E-01
         2         57   2.7241660240997225E+00   3.7698883318628966E+00   3.1934340302677016E+00   1.8765055324504407E-01
         2         58   1.3545579675136819E+01   1.7514804194574698E+01   1.5199810125789872E+01   7.5915073035736913E-01
         2         59   8.8851120452209873E+00   1.3256296184968939E+01   1.0736474670433752E+01   7.9122842999632681E-01
         2         60   1.0130416975282879E+00   1.5036523945636515E+00   1.1885993721615737E+00   8.1010289342078101E-02
         2         61   3.6133840749526027E+00   5.1096678879492945E+00   4.2872076737458373E+00   2.6485342899516484E-01
         2         62   2.8494365098555137E+00   4.4459160112327316E+00   3.5826499046457907E+00   2.7485250904741992E-01
         2         63   2.4375420511185406E-01   4.1663930223766288E-01   3.2326219517445215E-01   3.1566376420324782E-02
         2         64   3.7003668077057048E+00   4.7192393274186744E+00   4.1158588543986809E+00   2.0664910066645312E-01
         2         65   1.6589704302371595E+00   2.5877436611459599E+00   2.0115238927871433E+00   1.6306868634050989E-01
         2         66   2.5963528414021817E+00   3.5218793656644816E+00   2.9921826210911275E+00   1.5552052039730968E-01
         2         67   8.2238157571478645E+00   1.0803164078058000E+01   9.3347528178496990E+00   4.9147550494629988E-01
         2         68   5.5611304318497670E+00   9.1293484032953085E+00   7.2557889620379079E+00   6.2786096878173003E-01
         2         69   1.6121748987358082E+00   2.3371344880840352E+00   1.9357424405774901E+00   1.1896949214697383E-01
         2         70   8.2105637462642864E+00   1.0800628439808072E+01   9.3157682461350113E+00   4.9412756165441946E-01
         2         71   4.8073368871987761E+00   7.7369778643852154E+00   6.1367836252185359E+00   5.1983904151942906E-01
         2         72   6.2988707120700549E-01   9.8692333079101235E-01   7.5208143541005967E-01   5.8234954693079523E-02
         2         73   2.1258939549125073E+00   3.1953321974494178E+00   2.6053098950512541E+00   1.9044359659135579E-01
         2         74   1.5532917130260440E+00   2.6786394254347989E+00   2.0917915229492965E+00   1.8405163928150836E-01
         2         75   1.2680840736192778E-01   2.2743803731173895E-01   1.7161871974367357E-01   1.8074450438879112E-02
         2         76   2.2187136985027065E+00   2.8717265218436476E+00   2.4709253283527790E+00   1.3019821416752361E-01
         2         77   8.8937590898946228E-01   1.4167443362993262E+00   1.1010921888654339E+00   9.5096999539262525E-02
         2         78   1.8095300556787619E-01   3.1865892584027239E-01   2.4081718922875731E-01   2.2579145563871382E-02
         2         79   3.1034765586116098E-01   6.2838739580430647E-01   4.6656206018035357E-01   4.9790359551592181E-02
         2         80   8.9424525698192855E-02   3.9172310190582749E-01   2.2474102076393870E-01   5.0164682483254820E-02
         2         81   6.6680066826495632E-02   1.4602524718659396E-01   1.0238561277224972E-01   1.3703616384293923E-02
         2         82   3.1023524376987965E-01   6.1638213549206144E-01   4.6331788482672742E-01   4.9308256727298778E-02
         2         83   7.1389802836884605E-02   2.8832043829742199E-01   1.6967824403698234E-01   3.6589276735869869E-02
         2         84   4.3370227935276333E-02   1.0846900715747360E-01   6.1129492385788957E-02   1.0853245385807583E-02
         2         85   6.9316304367965570E-02   1.9508052518438235E-01   1.1971583803839181E-01   2.5300929630641521E-02
         2         86   2.5217510355375117E-02   1.2016559641469159E-01   6.8216863995031768E-02   1.4209452257220647E-02
         2         87   1.7423748428411841E-03   3.8517619122972967E-03   2.6021654639886860E-03   3.6341248057495529E-04
         2         88   7.5311468371945717E-02   1.4247228480150337E-01   1.0371568981365001E-01   1.1112216486814458E-02
         2         89   1.1928281484783261E-02   3.5334682941661068E-02   2.3195830907486240E-02   3.9360272836742186E-03
