begin
lattice         13.584014000         0.000000000         0.000000000
lattice          0.000000000        13.584014000         0.000000000
lattice          0.000000000         0.000000000        13.624613000
atom           1.570051230         4.284426572         3.555685527 O         -0.227481120         0.000000000         0.018800641        -0.016161730         0.013855326
atom          -1.603009957        -4.273522848        10.399214252 O         -0.224491300         0.000000000         0.017515474        -0.020361151        -0.012291215
atom           2.550441535         8.408468244         6.995625282 O         -0.228692760         0.000000000        -0.021503860        -0.021961343        -0.014636297
atom          11.036178821         5.248561445        13.826986056 O         -0.232005020         0.000000000         0.027492995         0.004044981        -0.007070611
atom           5.214818482        11.040901249        -0.193330398 O         -0.228120140         0.000000000        -0.005691169         0.001371576        -0.001394868
atom           8.337320027         2.508053071         6.668337815 O         -0.223547610         0.000000000         0.027890909         0.005245851        -0.018904787
atom           4.248168382         1.578715628        -3.547368839 O         -0.230404150         0.000000000         0.005849321         0.023115539        -0.012629661
atom          -4.250598571        -1.562501772         3.267878234 O         -0.230900730         0.000000000        -0.004362976         0.001974857        -0.000326727
atom           5.582908932         5.509417454        -0.002932856 O         -0.239458960         0.000000000        -0.000232133         0.010699737         0.012774558
atom          -5.530680661        -5.548177642         6.782670071 O         -0.243920410         0.000000000         0.009632956         0.003537835         0.012681355
atom           1.259244071        12.339916512         3.437639958 O         -0.240137290         0.000000000         0.010381042         0.009123041        -0.035331790
atom          12.288640663         1.298839519        10.188411439 O         -0.243664310         0.000000000         0.014486360        -0.006928328         0.014316886
atom           0.079910880         4.580741415         2.548988335 H          0.114591640         0.000000000        -0.016351919         0.002382081        -0.008935938
atom           1.603478609         2.415080398         3.870264581 H          0.123416490         0.000000000        -0.002157651         0.014188005        -0.004006356
atom           4.309287819         5.121927068         1.304752474 H          0.113514080         0.000000000         0.001956390         0.000456120         0.001326262
atom          -0.000873054        -4.632835516         9.413513815 H          0.120886990         0.000000000        -0.016381349         0.002974523         0.008885111
atom          -1.571944737        -2.464508095        10.623209248 H          0.118738160         0.000000000        -0.000567347         0.017028842         0.002440592
atom          -4.328504451        -5.131543888         8.197741020 H          0.113190060         0.000000000        -0.009196030        -0.002834414        -0.012635055
atom           2.229231429         6.806163155         5.976077947 H          0.120198060         0.000000000         0.001477039         0.019730370         0.011712970
atom           4.357470185         8.386585207         7.236374597 H          0.114855430         0.000000000         0.017950871         0.000905092         0.002961700
atom           1.653478893        11.127027441         4.733813072 H          0.109219920         0.000000000         0.005636391        -0.013536993         0.015172039
atom          11.371480620         6.800201067        12.826241503 H          0.117106270         0.000000000        -0.001247177        -0.004950168         0.002939525
atom           9.246526210         5.232014997        14.070677675 H          0.115574330         0.000000000        -0.025142520         0.000552478         0.003722488
atom          11.843018499         2.467274655        11.560071583 H          0.114180000         0.000000000        -0.000132187         0.002119348         0.001405798
atom           6.708116566        11.396033841         0.847839192 H          0.117517760         0.000000000         0.003858289        -0.001705370         0.001564190
atom           5.212643407         9.200549155        -0.457034225 H          0.120963140         0.000000000         0.002422361         0.000014734         0.001554667
atom           2.489771853        11.878675755         2.023612137 H          0.116685980         0.000000000        -0.014833313         0.005479461         0.018644869
atom           6.859680220         2.215515792         7.628269936 H          0.114893740         0.000000000        -0.031321975        -0.010348599         0.020403970
atom           8.304461456         4.340953972         6.428913199 H          0.121418230         0.000000000         0.003136582         0.006321168        -0.003410888
atom          11.100652523         1.721255837         8.877111061 H          0.110890020         0.000000000        -0.012891132         0.004360638        -0.014668609
atom           4.638200451         0.079330734        -2.618486820 H          0.115546710         0.000000000         0.003396200        -0.021917903         0.013233833
atom           2.427448661         1.572118592        -3.774803138 H          0.120731750         0.000000000        -0.010397163        -0.001401074        -0.001004950
atom           5.139599794         4.322166307        -1.318315044 H          0.110880900         0.000000000        -0.002862669        -0.010582612        -0.013538444
atom          -4.649973449         0.005141947         4.221324812 H          0.117932820         0.000000000         0.005858735        -0.005412092        -0.002892025
atom          -2.416080064        -1.549279353         2.938753952 H          0.119815720         0.000000000        -0.002359882         0.003503371         0.003823687
atom          -5.066465474        -4.295534386         5.478658370 H          0.110165320         0.000000000        -0.000110104        -0.001027861         0.000258385
energy        -918.89183246
charge           0.00000000
end
begin
lattice         14.643248000         0.000000000         0.000000000
lattice         -5.745087000        13.469174000         0.000000000
lattice         -5.745087000        -8.696362000        10.285523000
atom           4.738682898         1.451914955        -1.419443778 O         -0.229459600         0.000000000        -0.058130437         0.005510599        -0.038641231
atom           0.918331674         7.232198300         3.343113930 O         -0.214143240         0.000000000        -0.014954593        -0.001543677         0.006033359
atom           2.984936987         2.351245424        -2.149611567 H          0.113972230         0.000000000         0.043629836        -0.020845887         0.021258484
atom           5.142154704         2.599304203        -0.078300833 H          0.101148530         0.000000000         0.007911603         0.016855020         0.017136107
atom           5.964384318         1.961366424         4.260850339 H          0.111857290         0.000000000        -0.003803190         0.011181733        -0.001120223
atom           7.543020577        -0.439535354         3.814914480 H          0.117926510         0.000000000        -0.007478938         0.000882761         0.009784318
atom          -3.734986592         3.404414780         0.177607870 O         -0.238664710         0.000000000        -0.001689551        -0.006247652         0.001863440
atom          -2.238787778        -0.065615097         7.807644701 O         -0.218619760         0.000000000         0.053537960         0.031069180        -0.004749322
atom          -4.094187767         1.536291260         0.319940209 H          0.102915070         0.000000000         0.002981653         0.011946151         0.001543569
atom          -3.744380425         3.984360620         1.963741810 H          0.106132900         0.000000000         0.001281569        -0.003338109        -0.005063700
atom          -0.496270624         6.335447308         4.237534889 H          0.110687180         0.000000000         0.007872627         0.001488795        -0.002794272
atom          -0.017105808         8.247886813         2.044750622 H          0.112520350         0.000000000         0.008279456        -0.001269871         0.004655533
atom          -0.552202760        -4.360631698         2.666298800 O         -0.229332310         0.000000000         0.038586042         0.021724271         0.033725938
atom           6.291977920         0.312211226         5.028302439 O         -0.216081190         0.000000000         0.009495540        -0.012513039        -0.008835869
atom           0.813873241        -4.009694299         1.386700480 H          0.101210300         0.000000000        -0.008617473        -0.002705284         0.007926582
atom           0.485096669        -3.875183540         4.349813012 H          0.112066680         0.000000000        -0.027174319        -0.011689763        -0.039451824
atom          -0.447538347        -0.788142720         7.484087555 H          0.117826300         0.000000000        -0.031337721         0.002426506         0.005034412
atom          -3.477859015        -1.339784231         7.607552860 H          0.109701880         0.000000000        -0.016874553        -0.030265274        -0.003251680
atom          -4.737660556        -1.482428375         1.392764614 O         -0.220867910         0.000000000         0.001570210        -0.002159925        -0.000611589
atom          -0.913622474        -7.264514520        -3.484233064 O         -0.200608810         0.000000000         0.005489993         0.016360800        -0.016735256
atom          -3.165761173        -2.281603320         2.029702727 H          0.106247410         0.000000000         0.002046535         0.000831197         0.002053048
atom          -5.222889506        -2.711126901         0.059197584 H          0.106459970         0.000000000        -0.001470129         0.002259952         0.001091269
atom          -5.831224713        -1.951258275        -4.171691135 H          0.112531290         0.000000000        -0.007737520         0.026705741        -0.014242870
atom          -7.618751382         0.417733575        -3.830355439 H          0.108904260         0.000000000         0.002720259         0.003367692        -0.001010309
atom           3.814357011        -3.426471672        -0.090308158 O         -0.219187370         0.000000000        -0.005628363        -0.012019518        -0.006546391
atom           2.286055516         0.104637957        -7.766340941 O         -0.228644510         0.000000000        -0.089366188        -0.084223133         0.003543177
atom           4.090234458        -1.581126920        -0.273057975 H          0.105625140         0.000000000         0.000860848         0.001979310        -0.006099285
atom           3.703329888        -4.095652305        -1.857883090 H          0.114778960         0.000000000         0.002117752         0.011039600         0.010244330
atom           0.482126018        -6.279583202        -4.330511341 H          0.115771520         0.000000000        -0.008559956        -0.004815359         0.005719702
atom          -0.057884224        -8.207206662        -2.153562986 H          0.119506640         0.000000000         0.003524354        -0.008733818         0.008474358
atom           0.531840953         4.324335714        -2.693501418 O         -0.207403350         0.000000000         0.005813621        -0.015799132        -0.070501251
atom          -6.273800638        -0.209440320        -4.970478687 O         -0.222157100         0.000000000         0.007877682        -0.032670432         0.015552189
atom          -0.792487202         4.052383229        -1.506582864 H          0.104100820         0.000000000        -0.026591469        -0.007270305         0.025321670
atom          -0.366106237         3.750659987        -4.431568265 H          0.122559640         0.000000000         0.018849449         0.014975102         0.041532400
atom           0.569266994         0.858688114        -7.429652082 H          0.112172930         0.000000000         0.012184829        -0.005963617        -0.006353506
atom           3.368266194         1.390304189        -7.702504077 H          0.098416550         0.000000000         0.072782568         0.083469365         0.003514695
energy        -918.86666618
charge           0.00000000
end
begin
lattice         12.591687000         0.000000000         0.000000000
lattice          0.000000000        12.591687000         0.000000000
lattice          0.000000000         0.000000000        12.629330000
atom           1.375505738         3.879862503         3.571498761 O         -0.234921090         0.000000000         0.071112874        -0.057154136         0.048736016
atom          -1.456321798        -3.942805526         9.824799642 O         -0.218558970         0.000000000         0.020318754         0.026339502        -0.008330051
atom           2.499702368         7.745306391         6.668900954 O         -0.215286210         0.000000000         0.021107246         0.054252543         0.033372687
atom          10.202994461         4.792577909        13.076182449 O         -0.208527140         0.000000000        -0.008229662         0.025385556        -0.016873380
atom           4.922685604        10.198869187        -0.331012119 O         -0.201457990         0.000000000        -0.124783561        -0.032324657        -0.075350601
atom           7.735927676         2.433575155         5.819551870 O         -0.203365760         0.000000000         0.018259415        -0.001715089        -0.006241588
atom           3.811101012         1.458740648        -3.546216105 O         -0.230155830         0.000000000         0.091009487        -0.028171639         0.017363700
atom          -3.842383550        -1.421048156         2.773202539 O         -0.228834560         0.000000000        -0.041762552        -0.002913161         0.002673290
atom           4.943174023         5.003562135         0.023759536 O         -0.225815110         0.000000000         0.039298783         0.035822970        -0.009518411
atom          -4.997218322        -5.107126727         6.283993824 O         -0.205796740         0.000000000        -0.021170595        -0.009504061        -0.010517608
atom           1.319908084        11.289562849         3.163032407 O         -0.215651850         0.000000000        -0.015164737         0.041143244        -0.047094846
atom          11.389540740         1.329744112         9.493691147 O         -0.230370650         0.000000000        -0.040437526         0.011703452        -0.016571941
atom          -0.031240965         4.309431438         2.668783791 H          0.096055100         0.000000000        -0.063536003         0.014606735        -0.038863057
atom           1.393539402         1.891992660         3.713687481 H          0.115309540         0.000000000        -0.002541322         0.037844203        -0.005830215
atom           3.894239546         4.651999237         1.433314373 H          0.109091620         0.000000000        -0.027701362        -0.012255637         0.025013143
atom           0.198128415        -4.231943187         8.853829626 H          0.111087280         0.000000000        -0.019421518        -0.002089831         0.009983222
atom          -1.458494984        -2.010410505         9.991976220 H          0.108781350         0.000000000        -0.001741691        -0.019879548        -0.000640237
atom          -3.900539895        -4.556148510         7.615595538 H          0.107379120         0.000000000         0.020504501         0.003088645         0.025706698
atom           2.152663476         6.228494436         5.872670203 H          0.106125870         0.000000000        -0.018093235        -0.055352335        -0.031088036
atom           4.384281630         7.758906755         6.789686627 H          0.111404810         0.000000000        -0.004645347         0.001942729         0.001052529
atom           1.783263445        10.179512715         4.449703974 H          0.105655660         0.000000000         0.015833915        -0.036384658         0.038223173
atom          10.450129163         6.442900958        12.094098950 H          0.109502990         0.000000000         0.006268927        -0.018931588         0.007881798
atom           8.340702638         4.771203208        13.184320180 H          0.108109740         0.000000000        -0.002883666        -0.004203288         0.003583060
atom          10.795866033         2.553480216        10.852843189 H          0.099023340         0.000000000         0.009756571        -0.008993720        -0.005585682
atom           6.355348022        10.495442924         0.431878181 H          0.105336660         0.000000000         0.122106957         0.026788071         0.067482878
atom           4.843135662         8.340683741        -0.626310289 H          0.124653670         0.000000000        -0.000408187         0.003368984         0.004523403
atom           2.466788995        10.966481914         1.701893695 H          0.115615060         0.000000000        -0.000272864        -0.002217220         0.009374897
atom           6.239252651         2.085547936         6.766136850 H          0.110649640         0.000000000        -0.027393216        -0.013741977         0.016046624
atom           7.717088989         4.282669126         5.850473471 H          0.111334660         0.000000000         0.008144588         0.013531586        -0.006576382
atom          10.024360469         1.675428070         8.096272136 H          0.107557480         0.000000000         0.027512462        -0.006132694         0.020733031
atom           4.252337120        -0.187026269        -2.569746984 H          0.115440090         0.000000000        -0.009318203         0.027394664        -0.013980606
atom           2.086230127         1.543587495        -3.646738237 H          0.098198210         0.000000000        -0.075943529         0.001064099        -0.004136447
atom           4.566742319         3.858901653        -1.324651298 H          0.108178260         0.000000000        -0.011265051        -0.021984801        -0.017805489
atom          -4.312560826         0.184458130         3.650638633 H          0.112287400         0.000000000         0.012440685        -0.006066415        -0.002988258
atom          -2.063872768        -1.576595355         2.575249869 H          0.109590770         0.000000000         0.031208744         0.007186782         0.002195308
atom          -4.621875100        -3.869058935         4.970002476 H          0.112329920         0.000000000         0.001829895         0.008552672        -0.015952621
energy        -918.85338454
charge           0.00000000
end
begin
lattice         14.782194000         0.000000000         0.000000000
lattice          0.000000000        14.782194000         0.000000000
lattice          0.000000000         0.000000000        14.782194000
atom           0.869274364         7.502211925        13.587130582 O         -0.176752560         0.000000000        -0.037709766         0.003995527        -0.012868360
atom          -0.510226257         6.179403111        13.606027851 H          0.175124510         0.000000000         0.023957187         0.021607811         0.000034654
atom           0.113383613         8.938404352        12.547780799 H          0.137247450         0.000000000         0.010857665        -0.017210524         0.019348640
atom           0.925966170         5.083363411         7.332136506 O         -0.284153300         0.000000000        -0.004876554        -0.000674382        -0.012891614
atom           0.963760708         3.193636534         7.653390076 H          0.096461100         0.000000000        -0.011509350         0.019781159         0.000982945
atom          -0.680301676         5.612486937         6.443964874 H          0.092973370         0.000000000         0.012264586        -0.019682124         0.009354711
atom          11.017102028         5.518000593         5.291233368 O         -0.253068910         0.000000000        -0.003987545         0.006389785        -0.007880820
atom          10.261211277         3.760554597         5.272336099 H          0.098632020         0.000000000         0.010637021         0.019508952         0.003822649
atom          10.563567578         6.425067605         3.666068253 H          0.099433890         0.000000000         0.004884418        -0.016619108         0.014578508
atom           1.247219739        15.382369226         9.750986910 O         -0.282088110         0.000000000        -0.007860908        -0.009369317        -0.002976083
atom           0.000000000        13.946178689         9.883267791 H          0.101359710         0.000000000         0.022206448         0.016179548        -0.001137998
atom           3.042458383        14.720964819         9.732089641 H          0.084370160         0.000000000        -0.016428930        -0.004908119        -0.002841239
atom           4.554239886         9.259657922         2.135389482 O         -0.218056020         0.000000000        -0.029619237         0.026264102        -0.011895458
atom           4.100705435        11.111588372         2.078697676 H          0.114086510         0.000000000         0.006208874        -0.016369488         0.006068207
atom           3.099150190         8.598253514         1.077144320 H          0.112770800         0.000000000         0.018672177         0.001056586         0.013135664
atom           8.957301621         0.982657976         5.158952487 O         -0.205883530         0.000000000        -0.035251336        -0.014644564         0.006870780
atom           7.936849107        -0.226767225         6.236094917 H          0.131337150         0.000000000         0.021516454         0.014356752         0.001697490
atom           7.464417388         1.870829609         4.403061735 H          0.108872880         0.000000000         0.008814165        -0.004755945         0.002187247
atom           6.954191131         0.718096214        14.097354949 O         -0.219696120         0.000000000        -0.006068304         0.023200855         0.002736728
atom           6.727423905         2.607821202        13.908384151 H          0.126876590         0.000000000         0.001139802        -0.026843944        -0.000692233
atom           5.329027906         0.188972688        14.947732044 H          0.107309670         0.000000000         0.021691355         0.000506219        -0.017741608
atom           4.781007111         5.177849755        11.432841941 O         -0.243480670         0.000000000         0.002624420        -0.009843788         0.000271504
atom           3.590479178         6.406170336        12.283219036 H          0.105566140         0.000000000        -0.000824163        -0.030839534        -0.017136799
atom           3.892835478         3.779451866        10.487978502 H          0.138435270         0.000000000         0.003435903         0.033668638         0.021325073
atom           4.667623498         8.976198890         7.596698269 O         -0.271899480         0.000000000        -0.012827594        -0.012248846        -0.008741355
atom           3.458198297         7.634492807         8.239205408 H          0.101784200         0.000000000         0.017199816         0.017204930        -0.017025866
atom           4.648726230         8.768328933         5.706973281 H          0.100550590         0.000000000        -0.004138307         0.006992430         0.023594808
atom           5.196747024         4.044013629         3.382609221 O         -0.226918700         0.000000000        -0.012958465         0.028325129         0.006550249
atom           6.576245755         5.366822443         3.495992834 H          0.126522920         0.000000000        -0.029382531        -0.017193010        -0.009496635
atom           3.533787372         4.951082530         3.722760059 H          0.136185580         0.000000000         0.034973344        -0.015859627         0.005422579
atom           5.971535044        13.889486882         9.373041534 O         -0.217440650         0.000000000         0.009469038        -0.017858751        -0.007750344
atom           6.935293862        14.380813981        10.941512953 H          0.113778610         0.000000000        -0.015120474        -0.014652145        -0.008669066
atom           5.725870550        11.999760005         9.127377040 H          0.120437700         0.000000000         0.005955336         0.021281972         0.007140398
atom           2.551129395        14.002870495         1.341706083 O         -0.197277650         0.000000000        -0.026126671         0.032765575         0.012381187
atom           0.699198945        13.587130582         1.133836127 H          0.132718440         0.000000000         0.016704404         0.009662957        -0.000411270
atom           2.513334858        15.873698214         1.795240534 H          0.152023330         0.000000000        -0.002100212        -0.037458523        -0.003167248
atom          11.886376392        14.229635831         1.266117008 O         -0.267997650         0.000000000        -0.016058272         0.016891321        -0.001259366
atom          11.413944673        15.098910195         2.910177502 H          0.114578860         0.000000000        -0.001683539        -0.019123078        -0.021836658
atom          10.336800352        14.607581206         0.188972688 H          0.108405100         0.000000000         0.015345157        -0.000059009         0.025051640
atom           9.032890696         7.275444700         1.020452514 O         -0.244957260         0.000000000        -0.006469419         0.020284338        -0.008464657
atom           7.880157301         8.692739858         1.587370577 H          0.116997990         0.000000000         0.010167640        -0.022315390        -0.018020557
atom           8.957301621         7.180958356        -0.888171633 H          0.109509290         0.000000000         0.007024326         0.002724053         0.027025920
atom          12.698958949        11.735198242        11.319458329 O         -0.221116580         0.000000000        -0.012132337        -0.009665784         0.014635992
atom          11.924170930         9.996651404        11.206074716 H          0.119453190         0.000000000        -0.010240007         0.028930615         0.001040634
atom          11.867479123        12.717856218        12.736753487 H          0.131330030         0.000000000         0.017359200        -0.028272072        -0.022102131
atom           9.656500566         7.143163819        10.676951190 O         -0.238232900         0.000000000         0.002016510         0.001395735        -0.012857676
atom           7.766773688         6.991985668        10.431286696 H          0.119636930         0.000000000         0.023605438        -0.004848690        -0.011039481
atom          10.582464846         6.803012981         9.051787965 H          0.134369970         0.000000000        -0.025356772        -0.001659226         0.013646325
energy       -1225.03926555
charge           0.00000000
end
begin
lattice         14.782194000         0.000000000         0.000000000
lattice          0.000000000        14.782194000         0.000000000
lattice          0.000000000         0.000000000        14.782194000
atom           1.247219739         5.669178744        13.813897807 O         -0.233425430         0.000000000         0.013337892        -0.012789625         0.017056985
atom           1.587370577         4.251883585        15.023321119 H          0.123736570         0.000000000        -0.003946757         0.018139608        -0.021588810
atom           2.267670364         7.086472012        14.607581206 H          0.098969270         0.000000000        -0.013066521        -0.002730959         0.000209072
atom           5.102260680         1.341706083         8.768328933 O         -0.176043660         0.000000000        -0.017344271         0.011539033        -0.014630598
atom           5.083363411         2.551129395         7.294341969 H          0.143124180         0.000000000        -0.011823251        -0.018250726         0.013319490
atom           3.363711953         0.718096214         9.259657922 H          0.128250060         0.000000000         0.011619068         0.014076517        -0.007045905
atom           2.078697676        -0.094486344         0.982657976 O         -0.226741770         0.000000000        -0.019221876         0.007746572        -0.009903845
atom           1.398397890        -0.321253569        -0.793685289 H          0.106405370         0.000000000         0.007117000         0.001912094         0.014546234
atom           0.812582557         1.039349783         1.833035071 H          0.111746670         0.000000000         0.011034932        -0.014658731         0.002855758
atom           2.702307545         8.806123471        10.128930396 O         -0.211057850         0.000000000         0.003679407         0.000948113        -0.021927973
atom           2.456643051         7.388828313        11.376150135 H          0.113748790         0.000000000         0.004950541         0.004071413        -0.027643283
atom           2.966869308         8.258102676         8.314794483 H          0.150362310         0.000000000        -0.005125107        -0.003260790         0.038216319