begin
comment source_file_name=OUTCAR_3_1
lattice 15.108884000 0.000000000 0.000000000
lattice -0.444607000 11.968873000 0.000000000
lattice -6.474115000 -0.622266000 12.064082000
atom 8.97740 0.46815 10.16037 S 0.0 0.0 -0.222358 0.152265 0.200886
atom -3.87571 6.56733 7.93575 S 0.0 0.0 0.181153 0.029206 -0.128752
atom -0.78724 10.87846 1.90371 S 0.0 0.0 0.222358 -0.152265 -0.200886
atom 12.06587 4.77928 4.12833 S 0.0 0.0 -0.181153 -0.029206 0.128752
atom 11.94651 0.70378 4.17659 S 0.0 0.0 -0.266316 0.287987 -0.135785
atom -0.36528 6.80794 1.85546 S 0.0 0.0 0.267316 -0.312061 0.046804
atom -3.75635 10.64283 7.88750 S 0.0 0.0 0.266316 -0.287987 0.135785
atom 8.55544 4.53867 10.20863 S 0.0 0.0 -0.267316 0.312061 -0.046804
atom 8.67874 0.67087 6.11408 S 0.0 0.0 -0.069678 0.254753 0.394016
atom -3.57660 6.35264 11.98205 S 0.0 0.0 0.150868 -0.078215 0.157183
atom -0.48858 10.67574 5.95001 S 0.0 0.0 0.069678 -0.254753 -0.394016
atom 11.76676 4.99397 0.08204 S 0.0 0.0 -0.150868 0.078215 -0.157183
atom 11.88653 0.97412 0.07238 S 0.0 0.0 0.171122 0.150756 0.345345
atom -0.30966 6.65489 5.95966 S 0.0 0.0 0.070471 0.029180 0.009887
atom -3.69637 10.37248 11.99170 S 0.0 0.0 -0.171122 -0.150756 -0.345345
atom 8.49982 4.69171 6.10443 S 0.0 0.0 -0.070471 -0.029180 -0.009887
atom 2.77557 0.67522 7.39890 S 0.0 0.0 -0.216263 -0.231346 -0.423473
atom 2.32132 6.48952 10.69722 S 0.0 0.0 0.148547 0.145228 -0.089181
atom 5.41460 10.67139 4.66518 S 0.0 0.0 0.216263 0.231346 0.423473
atom 5.86884 4.85708 1.36686 S 0.0 0.0 -0.148547 -0.145228 0.089181
atom 6.06254 0.80939 1.15453 S 0.0 0.0 -0.003546 0.269309 -0.245175
atom 5.52243 6.60179 4.87751 S 0.0 0.0 -0.035243 -0.385082 0.158705
atom 2.12762 10.53722 10.90955 S 0.0 0.0 0.003546 -0.269309 0.245175
atom 2.66773 4.74481 7.18657 S 0.0 0.0 0.035243 0.385082 -0.158705
atom -0.59740 0.44517 9.49202 S 0.0 0.0 0.284915 -0.318028 -0.082544
atom 5.70336 6.47540 8.60410 S 0.0 0.0 -0.333714 -0.128600 -0.028292
atom 8.78756 10.90144 2.57206 S 0.0 0.0 -0.284915 0.318028 0.082544
atom 2.48680 4.87120 3.45998 S 0.0 0.0 0.333714 0.128600 0.028292
atom 2.40104 0.81728 3.46119 S 0.0 0.0 -0.353432 -0.074392 -0.562056
atom 9.17450 6.84764 2.57086 S 0.0 0.0 0.565866 -0.129202 0.003960
atom 5.78912 10.52932 8.60290 S 0.0 0.0 0.353432 0.074392 0.562056
atom -0.98434 4.49896 9.49323 S 0.0 0.0 -0.565866 0.129202 -0.003960
atom 5.73117 2.52020 8.71027 S 0.0 0.0 -0.264889 0.230077 -0.030282
atom -0.77637 8.46979 9.38586 S 0.0 0.0 0.038205 -0.511643 -0.022736
atom 2.45900 8.82641 3.35381 S 0.0 0.0 0.264889 -0.230077 0.030282
atom 8.96653 2.87682 2.67823 S 0.0 0.0 -0.038205 0.511643 0.022736
atom 5.48094 2.41814 5.02710 S 0.0 0.0 -0.090600 -0.049752 -0.068989
atom 5.96967 8.61004 1.00494 S 0.0 0.0 0.160658 -0.216173 0.094621
atom 2.70923 8.92847 7.03698 S 0.0 0.0 0.090600 0.049752 0.068989
atom 2.22049 2.73657 11.05914 S 0.0 0.0 -0.160658 0.216173 -0.094621
atom -0.21511 2.55681 5.74974 S 0.0 0.0 -0.221792 0.383222 -0.351335
atom 11.65264 8.82325 0.28230 S 0.0 0.0 0.201957 -0.262280 0.164326
atom 8.40527 8.78980 6.31434 S 0.0 0.0 0.221792 -0.383222 0.351335
atom -3.46248 2.52335 11.78178 S 0.0 0.0 -0.201957 0.262280 -0.164326
atom -0.23592 2.69868 1.60694 S 0.0 0.0 -0.041713 -0.107677 0.082040
atom 11.67879 8.53776 4.42511 S 0.0 0.0 0.136374 -0.330995 -0.240607
atom 8.42608 8.64793 10.45715 S 0.0 0.0 0.041713 0.107677 -0.082040
atom -3.48863 2.80885 7.63898 S 0.0 0.0 -0.136374 0.330995 0.240607
atom 11.05568 2.80529 3.53116 Cu 0.0 0.0 0.041428 -0.244736 0.020236
atom 0.37189 8.84287 2.50088 Cu 0.0 0.0 -0.120754 0.245928 0.035521
atom -2.86552 8.54131 8.53292 Cu 0.0 0.0 -0.041428 0.244736 -0.020236
atom 7.81827 2.50374 9.56320 Cu 0.0 0.0 0.120754 -0.245928 -0.035521
atom 4.91105 0.46473 8.16135 Cu 0.0 0.0 0.078047 -0.299302 0.121709
atom 0.19855 6.35770 9.93477 Cu 0.0 0.0 -0.064545 0.247414 -0.040170
atom 3.27911 10.88187 3.90273 Cu 0.0 0.0 -0.078047 0.299302 -0.121709
atom 7.99161 4.98891 2.12931 Cu 0.0 0.0 0.064545 -0.247414 0.040170
atom 8.09301 0.99199 2.02315 Cu 0.0 0.0 0.139777 -0.407003 -0.073877
atom 3.47506 6.87401 4.00889 Cu 0.0 0.0 -0.156603 0.275670 -0.065123
atom 0.09716 10.35461 10.04094 Cu 0.0 0.0 -0.139777 0.407003 0.073877
atom 4.71510 4.47260 8.05519 Cu 0.0 0.0 0.156603 -0.275670 0.065123
atom 4.90154 2.82704 0.88188 Cu 0.0 0.0 0.061858 -0.361159 0.009819
atom 6.53457 8.59132 5.15016 Cu 0.0 0.0 -0.168443 0.163453 -0.166661
atom 3.28862 8.51956 11.18220 Cu 0.0 0.0 -0.061858 0.361159 -0.009819
atom 1.65559 2.75529 6.91393 Cu 0.0 0.0 0.168443 -0.163453 0.166661
atom -4.22854 0.42805 11.40176 Cu 0.0 0.0 0.212360 -0.298914 0.104173
atom 9.32845 6.65530 6.69436 Cu 0.0 0.0 -0.196286 0.425400 -0.260995
atom 12.41870 10.91855 0.66232 Cu 0.0 0.0 -0.212360 0.298914 -0.104173
atom -1.13829 4.69131 5.36972 Cu 0.0 0.0 0.196286 -0.425400 0.260995
atom -1.29310 0.66156 5.34318 Cu 0.0 0.0 0.222205 -0.354828 0.119092
atom 12.87300 6.88607 0.68886 Cu 0.0 0.0 -0.260305 0.283403 -0.098703
atom 9.48326 10.68505 6.72090 Cu 0.0 0.0 -0.222205 0.354828 -0.119092
atom -4.68284 4.46054 11.37522 Cu 0.0 0.0 0.260305 -0.283403 0.098703
atom 7.64017 0.85829 11.97119 Cu 0.0 0.0 -0.116702 -0.000516 -0.443922
atom -2.57440 7.14427 6.12493 Cu 0.0 0.0 -0.076548 0.116351 0.068077
atom 0.54999 10.48832 0.09289 Cu 0.0 0.0 0.116702 0.000516 0.443922
atom 10.76456 4.20233 5.93915 Cu 0.0 0.0 0.076548 -0.116351 -0.068077
atom 10.85957 1.37271 6.15148 Cu 0.0 0.0 -0.054746 -0.104453 -0.353573
atom -5.80972 7.05834 11.94465 Cu 0.0 0.0 -0.135939 0.092078 0.066335
atom -2.66941 9.97390 5.91261 Cu 0.0 0.0 0.054746 0.104453 0.353573
atom 13.99988 4.28827 0.11943 Cu 0.0 0.0 0.135939 -0.092078 -0.066335
atom 8.73387 2.74132 4.95713 Cu 0.0 0.0 0.128971 -0.221059 0.043926
atom 2.69299 8.92600 1.07491 Cu 0.0 0.0 -0.102359 0.348945 -0.017986
atom -0.54371 8.60529 7.10695 Cu 0.0 0.0 -0.128971 0.221059 -0.043926
atom 5.49717 2.42061 10.98917 Cu 0.0 0.0 0.102359 -0.348945 0.017986
atom 0.57405 1.18611 11.27750 Cu 0.0 0.0 -0.056031 0.160247 0.313636
atom 4.47002 7.40053 6.81862 Cu 0.0 0.0 -0.028281 0.217544 -0.150245
atom 7.61611 10.16050 0.78658 Cu 0.0 0.0 0.056031 -0.160247 -0.313636
atom 3.72014 3.94607 5.24546 Cu 0.0 0.0 0.028281 -0.217544 0.150245
atom 3.53184 1.19792 5.29372 Cu 0.0 0.0 0.082555 0.203931 0.472192
atom 8.00840 7.41733 0.73832 Cu 0.0 0.0 -0.152359 0.177430 -0.079993
atom 4.65833 10.14868 6.77036 Cu 0.0 0.0 -0.082555 -0.203931 -0.472192
atom 0.18176 3.92928 11.32576 Cu 0.0 0.0 0.152359 -0.177430 0.079993
atom -1.71725 2.29170 10.26291 Cu 0.0 0.0 0.006280 -0.003572 0.080109
atom 6.68307 8.40146 7.83321 Cu 0.0 0.0 -0.002610 0.104121 -0.088140
atom 9.90741 9.05491 1.80117 Cu 0.0 0.0 -0.006280 0.003572 -0.080109
atom 1.50709 2.94514 4.23087 Cu 0.0 0.0 0.002610 -0.104121 0.088140
atom 7.96515 0.00348 8.23977 Cu 0.0 0.0 -0.037219 0.066784 -0.472910
atom -2.82157 5.90453 9.85635 Cu 0.0 0.0 0.048928 -0.254305 -0.004213
atom 0.22502 11.34313 3.82431 Cu 0.0 0.0 0.037219 -0.066784 0.472910
atom 11.01173 5.44208 2.20773 Cu 0.0 0.0 -0.048928 0.254305 0.004213
atom 10.72069 0.64288 2.01591 Cu 0.0 0.0 0.130749 -0.020501 -0.150597
atom 0.87335 6.52414 4.01613 Cu 0.0 0.0 -0.064077 0.079143 0.123997
atom -2.53053 10.70373 10.04817 Cu 0.0 0.0 -0.130749 0.020501 0.150597
atom 7.31681 4.82246 8.04795 Cu 0.0 0.0 0.064077 -0.079143 -0.123997
atom -4.69589 1.96712 9.31588 Cu 0.0 0.0 0.119507 0.126795 -0.046745
atom 9.68946 7.97919 8.78024 Cu 0.0 0.0 0.026537 0.001963 0.091876
atom 12.88605 9.37949 2.74820 Cu 0.0 0.0 -0.119507 -0.126795 0.046745
atom -1.49929 3.36742 3.28384 Cu 0.0 0.0 -0.026537 -0.001963 -0.091876
atom 5.72361 0.77518 3.41896 Cu 0.0 0.0 0.002849 -0.101693 0.012352
atom 5.85522 6.80118 2.61308 Cu 0.0 0.0 -0.043895 0.263306 -0.011700
atom 2.46655 10.57143 8.64512 Cu 0.0 0.0 -0.002849 0.101693 -0.012352
atom 2.33495 4.54543 9.45100 Cu 0.0 0.0 0.043895 -0.263306 0.011700
atom 0.51324 0.13178 7.51592 Cu 0.0 0.0 0.026819 0.233220 0.498362
atom 4.62358 5.95816 10.58020 Cu 0.0 0.0 0.137093 -0.068788 -0.061812
atom 7.67693 11.21483 4.54816 Cu 0.0 0.0 -0.026819 -0.233220 -0.498362
atom 3.56658 5.38845 1.48388 Cu 0.0 0.0 -0.137093 0.068788 0.061812
atom 3.72216 0.43254 1.61538 Cu 0.0 0.0 -0.040870 0.279572 0.401644
atom 7.88903 6.27248 4.41666 Cu 0.0 0.0 -0.142573 -0.076326 0.005876
atom 4.46800 10.91407 10.44870 Cu 0.0 0.0 0.040870 -0.279572 -0.401644
atom 0.30113 5.07412 7.64742 Cu 0.0 0.0 0.142573 0.076326 -0.005876
atom 2.94560 2.02254 9.09994 Cu 0.0 0.0 0.040919 0.245148 0.290469
atom 2.04468 8.01233 8.99619 Cu 0.0 0.0 -0.015727 -0.057877 -0.039936
atom 5.24457 9.32406 2.96414 Cu 0.0 0.0 -0.040919 -0.245148 -0.290469
atom 6.14548 3.33427 3.06790 Cu 0.0 0.0 0.015727 0.057877 0.039936
atom 13.65645 0.88975 2.61308 Cu 0.0 0.0 -0.001253 -0.021270 0.054902
atom -2.08304 6.83262 3.41896 Cu 0.0 0.0 0.000362 0.194907 -0.105534
atom -5.46628 10.45685 9.45100 Cu 0.0 0.0 0.001253 0.021270 -0.054902
atom 10.27320 4.51398 8.64512 Cu 0.0 0.0 -0.000362 -0.194907 0.105534
atom 3.19194 0.64211 11.49828 Cu 0.0 0.0 -0.132780 0.397604 0.050572
atom 1.89170 6.87931 6.59785 Cu 0.0 0.0 0.147372 -0.288628 -0.015811
atom 4.99822 10.70450 0.56581 Cu 0.0 0.0 0.132780 -0.397604 -0.050572
atom 6.29846 4.46730 5.46624 Cu 0.0 0.0 -0.147372 0.288628 0.015811
atom 6.88199 1.97461 6.82706 Cu 0.0 0.0 0.177085 -0.092970 0.112419
atom -1.87944 7.72993 11.26906 Cu 0.0 0.0 0.066394 0.172016 -0.179726
atom 1.30817 9.37200 5.23702 Cu 0.0 0.0 -0.177085 0.092970 -0.112419
atom 10.06961 3.61668 0.79502 Cu 0.0 0.0 -0.066394 -0.172016 0.179726
atom 2.06701 2.38937 1.68656 Cu 0.0 0.0 0.157526 -0.073328 0.019306
atom 9.39853 8.23666 4.34548 Cu 0.0 0.0 -0.040495 0.188487 0.189635
atom 6.12315 8.95724 10.37752 Cu 0.0 0.0 -0.157526 0.073328 -0.019306
atom -1.20837 3.10995 7.71860 Cu 0.0 0.0 0.040495 -0.188487 -0.189635
atom -2.46328 0.73361 8.19272 Cu 0.0 0.0 -0.105099 0.334735 -0.070623
atom 7.55279 6.62981 9.90340 Cu 0.0 0.0 0.166095 -0.209643 0.144307
atom 10.65344 10.61299 3.87136 Cu 0.0 0.0 0.105099 -0.334735 0.070623
atom 0.63737 4.71680 2.16068 Cu 0.0 0.0 -0.166095 0.209643 -0.144307
energy -571.723972
charge 0.0
end
begin
comment source_file_name=OUTCAR_3_13
lattice 15.297462000 0.000000000 0.000000000
lattice -0.255520000 11.717175000 0.000000000
lattice -6.377825000 -0.427489000 11.642897000
atom 9.25473 0.61132 9.80565 S 0.0 0.0 -0.075453 0.044383 0.293567
atom -3.69413 6.54874 7.65870 S 0.0 0.0 0.101392 -0.068452 -0.257475
atom -0.59062 10.67836 1.83725 S 0.0 0.0 0.075453 -0.044383 -0.293567
atom 12.35825 4.74095 3.98420 S 0.0 0.0 -0.101392 0.068452 0.257475
atom 12.17187 0.75188 4.03077 S 0.0 0.0 -0.133267 0.136631 -0.060146
atom -0.23033 6.69272 1.79068 S 0.0 0.0 0.162224 -0.317867 -0.051220
atom -3.50776 10.53780 7.61213 S 0.0 0.0 0.133267 -0.136631 0.060146
atom 8.89445 4.59697 9.85222 S 0.0 0.0 -0.162224 0.317867 0.051220
atom 8.89285 0.74884 5.90062 S 0.0 0.0 0.111339 0.404760 0.293108
atom -3.33199 6.39950 11.56373 S 0.0 0.0 0.035717 -0.004228 0.186135
atom -0.22873 10.54084 5.74228 S 0.0 0.0 -0.111339 -0.404760 -0.293108
atom 11.99611 4.89019 0.07917 S 0.0 0.0 -0.035717 0.004228 -0.186135
atom 12.05186 0.95473 0.06986 S 0.0 0.0 0.300443 0.349162 0.241329
atom -0.11282 6.60470 5.75159 S 0.0 0.0 -0.047374 0.122470 0.084756
atom -3.38774 10.33496 11.57304 S 0.0 0.0 -0.300443 -0.349162 -0.241329
atom 8.77694 4.68498 5.89131 S 0.0 0.0 0.047374 -0.122470 -0.084756
atom 2.93601 0.77245 7.14059 S 0.0 0.0 -0.303865 -0.560216 -0.389525
atom 2.62183 6.51416 10.32376 S 0.0 0.0 0.223996 -0.097440 -0.142371
atom 5.72811 10.51724 4.50231 S 0.0 0.0 0.303865 0.560216 0.389525
atom 6.04229 4.77553 1.31914 S 0.0 0.0 -0.223996 0.097440 0.142371
atom 6.16928 0.80976 1.11423 S 0.0 0.0 0.157239 0.131858 -0.409031
atom 5.77440 6.53642 4.70722 S 0.0 0.0 -0.137039 -0.398947 0.313174
atom 2.49483 10.47993 10.52867 S 0.0 0.0 -0.157239 -0.131858 0.409031
atom 2.88971 4.75327 6.93567 S 0.0 0.0 0.137039 0.398947 -0.313174
atom -0.45032 0.57876 9.16063 S 0.0 0.0 0.223650 -0.303781 -0.023082
atom 6.01337 6.46881 8.30371 S 0.0 0.0 -0.280333 -0.124454 -0.042680
atom 9.11444 10.71092 2.48227 S 0.0 0.0 -0.223650 0.303781 0.023082
atom 2.65074 4.82087 3.33918 S 0.0 0.0 0.280333 0.124454 0.042680
atom 2.49801 0.85222 3.34035 S 0.0 0.0 -0.708941 -0.202917 -0.384835
atom 9.44026 6.74236 2.48110 S 0.0 0.0 0.787071 -0.305822 -0.099587
atom 6.16611 10.43746 8.30255 S 0.0 0.0 0.708941 0.202917 0.384835
atom -0.77614 4.54733 9.16180 S 0.0 0.0 -0.787071 0.305822 0.099587
atom 5.97885 2.59838 8.40617 S 0.0 0.0 -0.253152 0.198957 -0.016582
atom -0.50267 8.43303 9.05817 S 0.0 0.0 0.044792 -0.391327 0.026829
atom 2.68527 8.69130 3.23673 S 0.0 0.0 0.253152 -0.198957 0.016582
atom 9.16679 2.85665 2.58472 S 0.0 0.0 -0.044792 0.391327 -0.026829
atom 5.66668 2.44300 4.85160 S 0.0 0.0 -0.364860 -0.248944 0.352942
atom 6.19979 8.44411 0.96985 S 0.0 0.0 0.426778 -0.428439 -0.384782
atom 2.99744 8.84669 6.79130 S 0.0 0.0 0.364860 0.248944 -0.352942
atom 2.46433 2.84558 10.67304 S 0.0 0.0 -0.426778 0.428439 0.384782
atom -0.08699 2.58963 5.54900 S 0.0 0.0 -0.025437 0.123138 -0.528510
atom 11.94594 8.64196 0.27244 S 0.0 0.0 0.063386 -0.351520 0.329911
atom 8.75110 8.70005 6.09389 S 0.0 0.0 0.025437 -0.123138 0.528510
atom -3.28183 2.64773 11.37045 S 0.0 0.0 -0.063386 0.351520 -0.329911
atom -0.17004 2.66613 1.55083 S 0.0 0.0 0.328740 -0.307766 0.005987
atom 12.03207 8.42486 4.27061 S 0.0 0.0 -0.275791 -0.548926 -0.163727
atom 8.83416 8.62356 10.09206 S 0.0 0.0 -0.328740 0.307766 -0.005987
atom -3.36795 2.86483 7.37228 S 0.0 0.0 0.275791 0.548926 0.163727
atom 11.29409 2.79948 3.40788 Cu 0.0 0.0 -0.053698 -0.113980 -0.109447
atom 0.55915 8.69458 2.41357 Cu 0.0 0.0 0.016962 0.257953 0.153339
atom -2.62997 8.49021 8.23502 Cu 0.0 0.0 0.053698 0.113980 0.109447
atom 8.10497 2.59511 9.22932 Cu 0.0 0.0 -0.016962 -0.257953 -0.153339
atom 5.10656 0.57787 7.87642 Cu 0.0 0.0 -0.098791 -0.151354 0.015019
atom 0.45859 6.37362 9.58793 Cu 0.0 0.0 0.112520 0.257069 0.101003
atom 3.55756 10.71181 3.76648 Cu 0.0 0.0 0.098791 0.151354 -0.015019
atom 8.20553 4.91606 2.05497 Cu 0.0 0.0 -0.112520 -0.257069 -0.101003
atom 8.24154 1.00160 1.95251 Cu 0.0 0.0 -0.038726 -0.415718 -0.190767
atom 3.69243 6.78983 3.86893 Cu 0.0 0.0 -0.009991 0.114754 0.084952
atom 0.42257 10.28808 9.69038 Cu 0.0 0.0 0.038726 0.415718 0.190767
atom 4.97168 4.49986 7.77396 Cu 0.0 0.0 0.009991 -0.114754 -0.084952
atom 5.02238 2.78087 0.85110 Cu 0.0 0.0 -0.087701 -0.260449 0.029983
atom 6.83576 8.48821 4.97035 Cu 0.0 0.0 0.012626 0.141725 -0.142297
atom 3.64174 8.50881 10.79180 Cu 0.0 0.0 0.087701 0.260449 -0.029983
atom 1.82835 2.80147 6.67254 Cu 0.0 0.0 -0.012626 -0.141725 0.142297
atom -4.09742 0.59077 11.00370 Cu 0.0 0.0 0.087619 -0.317677 0.025590
atom 9.65700 6.61616 6.46064 Cu 0.0 0.0 -0.075743 0.208545 -0.210380
atom 12.76154 10.69892 0.63920 Cu 0.0 0.0 -0.087619 0.317677 -0.025590
atom -0.99288 4.67352 5.18225 Cu 0.0 0.0 0.075743 -0.208545 0.210380
atom -1.21557 0.72812 5.15664 Cu 0.0 0.0 0.070799 -0.281791 0.102672
atom 13.15634 6.75163 0.66481 Cu 0.0 0.0 -0.094671 0.183603 -0.090640
atom 9.87968 10.56157 6.48626 Cu 0.0 0.0 -0.070799 0.281791 -0.102672
atom -4.49222 4.53805 10.97809 Cu 0.0 0.0 0.094671 -0.183603 0.090640
atom 7.93526 1.02053 11.55325 Cu 0.0 0.0 -0.387933 -0.130153 -0.345487
atom -2.39530 7.08628 5.91110 Cu 0.0 0.0 0.172661 0.003167 0.040354
atom 0.72886 10.26916 0.08965 Cu 0.0 0.0 0.387933 0.130153 0.345487
atom 11.05942 4.20341 5.73180 Cu 0.0 0.0 -0.172661 -0.003167 -0.040354
atom 11.11290 1.43649 5.93671 Cu 0.0 0.0 -0.260736 -0.208164 -0.279923
atom -5.58209 7.08980 11.52763 Cu 0.0 0.0 0.036367 -0.000678 0.045761
atom -2.44878 9.85320 5.70618 Cu 0.0 0.0 0.260736 0.208164 0.279923
atom 14.24621 4.19989 0.11526 Cu 0.0 0.0 -0.036367 0.000678 -0.045761
atom 8.96439 2.75833 4.78407 Cu 0.0 0.0 0.140680 -0.214622 0.235424
atom 2.88844 8.75448 1.03738 Cu 0.0 0.0 -0.128401 0.364323 -0.217604
atom -0.30027 8.53136 6.85883 Cu 0.0 0.0 -0.140680 0.214622 -0.235424
atom 5.77568 2.53521 10.60551 Cu 0.0 0.0 0.128401 -0.364323 0.217604
atom 0.77551 1.33101 10.88378 Cu 0.0 0.0 0.123408 0.241213 0.283180
atom 4.75197 7.34760 6.58057 Cu 0.0 0.0 -0.172148 0.277921 -0.093776
atom 7.88860 9.95868 0.75912 Cu 0.0 0.0 -0.123408 -0.241213 -0.283180
atom 3.91215 3.94209 5.06233 Cu 0.0 0.0 0.172148 -0.277921 0.093776
atom 3.67755 1.25246 5.10890 Cu 0.0 0.0 0.369887 0.303330 0.311208
atom 8.24044 7.27247 0.71255 Cu 0.0 0.0 -0.395447 0.245839 0.048050
atom 4.98657 10.03723 6.53399 Cu 0.0 0.0 -0.369887 -0.303330 -0.311208
atom 0.42368 4.01722 10.93035 Cu 0.0 0.0 0.395447 -0.245839 -0.048050
atom -1.54216 2.39807 9.90461 Cu 0.0 0.0 0.023324 0.077918 0.079022
atom 7.02467 8.34276 7.55973 Cu 0.0 0.0 -0.020919 0.089487 -0.102592
atom 10.20627 8.89161 1.73828 Cu 0.0 0.0 -0.023324 -0.077918 -0.079022
atom 1.63945 2.94693 4.08316 Cu 0.0 0.0 0.020919 -0.089487 0.102592
atom 8.19248 0.12750 7.95210 Cu 0.0 0.0 -0.220921 -0.136250 -0.309043
atom -2.60782 5.92880 9.51225 Cu 0.0 0.0 0.184056 -0.354253 -0.127323
atom 0.47163 11.16219 3.69080 Cu 0.0 0.0 0.220921 0.136250 0.309043
atom 11.27193 5.36088 2.13065 Cu 0.0 0.0 -0.184056 0.354253 0.127323
atom 10.89623 0.65972 1.94553 Cu 0.0 0.0 -0.068814 -0.007404 -0.007446
atom 1.05267 6.44743 3.87592 Cu 0.0 0.0 0.126030 0.130493 -0.018135
atom -2.23212 10.62997 9.69737 Cu 0.0 0.0 0.068814 0.007404 0.007446
atom 7.61145 4.84226 7.76698 Cu 0.0 0.0 -0.126030 -0.130493 0.018135
atom -4.57795 2.06606 8.99064 Cu 0.0 0.0 -0.059501 0.057625 0.118793
atom 10.07640 7.94362 8.47370 Cu 0.0 0.0 0.207102 -0.010090 -0.059408
atom 13.24206 9.22363 2.65225 Cu 0.0 0.0 0.059501 -0.057625 -0.118793
atom -1.41229 3.34606 3.16920 Cu 0.0 0.0 -0.207102 0.010090 0.059408
atom 5.86072 0.81037 3.29960 Cu 0.0 0.0 -0.037658 -0.164186 0.178320
atom 6.07945 6.69751 2.52185 Cu 0.0 0.0 0.023242 0.267815 -0.195609
atom 2.80340 10.47932 8.34330 Cu 0.0 0.0 0.037658 0.164186 -0.178320
atom 2.58467 4.59218 9.12105 Cu 0.0 0.0 -0.023242 -0.267815 0.195609
atom 0.63842 0.24220 7.25352 Cu 0.0 0.0 0.269169 0.362496 0.388672
atom 4.94237 5.99221 10.21082 Cu 0.0 0.0 -0.075139 0.049768 -0.011560
atom 8.02570 11.04749 4.38937 Cu 0.0 0.0 -0.269169 -0.362496 -0.388672
atom 3.72175 5.29748 1.43208 Cu 0.0 0.0 0.075139 -0.049768 0.011560
atom 3.80072 0.44777 1.55898 Cu 0.0 0.0 0.192327 0.319006 0.272519
atom 8.15804 6.20709 4.26246 Cu 0.0 0.0 -0.259882 0.013256 0.109475
atom 4.86339 10.84192 10.08391 Cu 0.0 0.0 -0.192327 -0.319006 -0.272519
atom 0.50608 5.08259 7.38043 Cu 0.0 0.0 0.259882 -0.013256 -0.109475
atom 3.15647 2.11706 8.78224 Cu 0.0 0.0 0.240395 0.223919 0.114597
atom 2.34010 7.97932 8.68211 Cu 0.0 0.0 -0.159391 -0.062192 0.117324
atom 5.50765 9.17263 2.86066 Cu 0.0 0.0 -0.240395 -0.223919 -0.114597
atom 6.32402 3.31036 2.96079 Cu 0.0 0.0 0.159391 0.062192 -0.117324
atom 13.88191 0.91040 2.52185 Cu 0.0 0.0 0.036714 -0.045538 -0.002822
atom -1.94487 6.74043 3.29960 Cu 0.0 0.0 -0.026349 0.098805 -0.046173
atom -5.21780 10.37929 9.12105 Cu 0.0 0.0 -0.036714 0.045538 0.002822
atom 10.60899 4.54926 8.34330 Cu 0.0 0.0 0.026349 -0.098805 0.046173
atom 3.42066 0.80177 11.09684 Cu 0.0 0.0 -0.051305 0.296658 0.155193
atom 2.12957 6.83401 6.36750 Cu 0.0 0.0 0.041967 -0.254438 -0.167872
atom 5.24346 10.48791 0.54605 Cu 0.0 0.0 0.051305 -0.296658 -0.155193
atom 6.53455 4.45568 5.27540 Cu 0.0 0.0 -0.041967 0.254438 0.167872
atom 7.10594 2.03590 6.58872 Cu 0.0 0.0 0.307288 -0.070714 -0.032730
atom -1.60232 7.73709 10.87563 Cu 0.0 0.0 -0.106705 0.118413 -0.043582
atom 1.55818 9.25378 5.05418 Cu 0.0 0.0 -0.307288 0.070714 0.032730
atom 10.26644 3.55260 0.76727 Cu 0.0 0.0 0.106705 -0.118413 0.043582
atom 2.15784 2.36452 1.62768 Cu 0.0 0.0 -0.029242 0.021965 0.094936
atom 9.71722 8.12889 4.19377 Cu 0.0 0.0 0.175652 0.262082 0.097682
atom 6.50628 8.92517 10.01522 Cu 0.0 0.0 0.029242 -0.021965 -0.094936
atom -1.05310 3.16080 7.44913 Cu 0.0 0.0 -0.175652 -0.262082 -0.097682
atom -2.35496 0.84157 7.90669 Cu 0.0 0.0 -0.038739 0.277040 -0.072462
atom 7.90855 6.63954 9.55765 Cu 0.0 0.0 0.062858 -0.094191 0.124850
atom 11.01907 10.44811 3.73621 Cu 0.0 0.0 0.038739 -0.277040 0.072462
atom 0.75556 4.65015 2.08524 Cu 0.0 0.0 -0.062858 0.094191 -0.124850
energy -570.358649
charge 0.0
end
begin
comment source_file_name=OUTCAR_3_18
lattice 15.011776000 0.000000000 0.000000000
lattice 0.491494000 11.988592000 0.000000000
lattice -5.973837000 0.914122000 12.124300000
atom 9.38336 1.76373 10.21109 S 0.0 0.0 -0.166833 -0.136080 0.079977
atom -3.00510 7.58946 7.97536 S 0.0 0.0 0.112216 0.095154 -0.005929
atom 0.14608 11.13899 1.91321 S 0.0 0.0 0.166833 0.136080 -0.079977
atom 12.53453 5.31325 4.14894 S 0.0 0.0 -0.112216 -0.095154 0.005929
atom 12.10019 1.23719 4.19743 S 0.0 0.0 -0.241943 -0.413212 0.074910
atom 0.24591 7.05561 1.86472 S 0.0 0.0 0.224483 0.270266 0.112645
atom -2.57076 11.66552 7.92687 S 0.0 0.0 0.241943 0.413212 -0.074910
atom 9.28352 5.84710 10.25958 S 0.0 0.0 -0.224483 -0.270266 -0.112645
atom 8.93231 1.45114 6.14460 S 0.0 0.0 -0.138559 -0.257221 -0.290881
atom -2.55454 7.89006 12.04185 S 0.0 0.0 0.006732 0.191790 -0.383242
atom 0.59712 11.45158 5.97970 S 0.0 0.0 0.138559 0.257221 0.290881
atom 12.08398 5.01265 0.08245 S 0.0 0.0 -0.006732 -0.191790 0.383242
atom 11.88914 0.98495 0.07275 S 0.0 0.0 -0.116762 -0.079413 -0.131640
atom 0.46178 7.42534 5.98940 S 0.0 0.0 -0.186551 0.157799 -0.306767
atom -2.35970 11.91776 12.05155 S 0.0 0.0 0.116762 0.079413 0.131640
atom 9.06765 5.47737 6.13490 S 0.0 0.0 0.186551 -0.157799 0.306767
atom 3.12143 1.61922 7.43583 S 0.0 0.0 -0.071573 0.240668 0.232289
atom 3.26213 7.86344 10.75062 S 0.0 0.0 0.161793 -0.286266 0.506913
atom 6.40800 11.28349 4.68847 S 0.0 0.0 0.071573 -0.240668 -0.232289
atom 6.26730 5.03927 1.37368 S 0.0 0.0 -0.161793 0.286266 -0.506913
atom 6.13522 0.95785 1.16030 S 0.0 0.0 0.081655 -0.470983 -0.078363
atom 6.20675 7.23425 4.90185 S 0.0 0.0 -0.111162 0.340778 0.242398
atom 3.39421 11.94486 10.96400 S 0.0 0.0 -0.081655 0.470983 0.078363
atom 3.32268 5.66847 7.22245 S 0.0 0.0 0.111162 -0.340778 -0.242398
atom -0.15980 1.65554 9.53940 S 0.0 0.0 0.221078 0.000289 0.052863
atom 6.53334 7.58256 8.64705 S 0.0 0.0 -0.197778 -0.321521 -0.026844
atom 9.68923 11.24717 2.58490 S 0.0 0.0 -0.221078 -0.000289 -0.052863
atom 2.99610 5.32016 3.47725 S 0.0 0.0 0.197778 0.321521 0.026844
atom 2.59485 1.25971 3.47846 S 0.0 0.0 -0.480835 -0.006102 0.242653
atom 9.75754 7.18655 2.58369 S 0.0 0.0 0.282652 0.045312 0.344565
atom 6.93459 11.64300 8.64584 S 0.0 0.0 0.480835 0.006102 -0.242653
atom -0.22811 5.71617 9.54061 S 0.0 0.0 -0.282652 -0.045312 -0.344565
atom 6.25703 3.63437 8.75374 S 0.0 0.0 0.011989 -0.515443 0.086910
atom 0.28362 9.67985 9.43271 S 0.0 0.0 0.324115 0.365962 -0.135716
atom 3.27241 9.26835 3.37056 S 0.0 0.0 -0.011989 0.515443 -0.086910
atom 9.24581 3.22286 2.69159 S 0.0 0.0 -0.324115 -0.365962 0.135716
atom 5.84560 3.06276 5.05220 S 0.0 0.0 -0.052232 -0.299786 0.127035
atom 6.64490 8.75229 1.00995 S 0.0 0.0 -0.054852 -0.022767 -0.020124
atom 3.68383 9.83995 7.07210 S 0.0 0.0 0.052232 0.299786 -0.127035
atom 2.88454 4.15042 11.11435 S 0.0 0.0 0.054852 0.022767 0.020124
atom 0.22736 3.29375 5.77844 S 0.0 0.0 -0.193575 -0.366464 -0.036360
atom 12.27759 8.87377 0.28371 S 0.0 0.0 0.142848 0.393827 0.365457
atom 9.30207 9.60896 6.34586 S 0.0 0.0 0.193575 0.366464 0.036360
atom -2.74815 4.02895 11.84059 S 0.0 0.0 -0.142848 -0.393827 -0.365457
atom 0.04358 2.90791 1.61496 S 0.0 0.0 -0.112358 -0.335527 0.092071
atom 12.45547 9.11574 4.44719 S 0.0 0.0 -0.080637 -0.180157 0.233857
atom 9.48586 9.99480 10.50934 S 0.0 0.0 0.112358 0.335527 -0.092071
atom -2.92604 3.78697 7.67711 S 0.0 0.0 0.080637 0.180157 -0.233857
atom 11.35182 3.25992 3.54878 Cu 0.0 0.0 0.062440 0.260899 -0.071251
atom 1.16414 9.17615 2.51337 Cu 0.0 0.0 0.016713 -0.313960 0.000877
atom -1.82238 9.64280 8.57552 Cu 0.0 0.0 -0.062440 -0.260899 0.071251
atom 8.36529 3.72657 9.61093 Cu 0.0 0.0 -0.016713 0.313960 -0.000877
atom 5.25884 1.50556 8.20209 Cu 0.0 0.0 0.002966 0.274873 0.020167
atom 1.11067 7.63423 9.98436 Cu 0.0 0.0 -0.057059 -0.366096 -0.124015
atom 4.27060 11.39715 3.92221 Cu 0.0 0.0 -0.002966 -0.274873 -0.020167
atom 8.41876 5.26848 2.13994 Cu 0.0 0.0 0.057059 0.366096 0.124015
atom 8.20339 1.25145 2.03325 Cu 0.0 0.0 0.091476 0.331268 0.062852
atom 4.15725 7.39621 4.02890 Cu 0.0 0.0 -0.054384 -0.468746 0.134818
atom 1.32604 11.65126 10.09105 Cu 0.0 0.0 -0.091476 -0.331268 -0.062852
atom 5.37218 5.50650 8.09540 Cu 0.0 0.0 0.054384 0.468746 -0.134818
atom 5.12754 2.94408 0.88629 Cu 0.0 0.0 0.084114 0.270573 0.125950
atom 7.37898 9.26180 5.17586 Cu 0.0 0.0 0.036538 -0.347413 0.023959
atom 4.40189 9.95863 11.23801 Cu 0.0 0.0 -0.084114 -0.270573 -0.125950
atom 2.15045 3.64092 6.94844 Cu 0.0 0.0 -0.036538 0.347413 -0.023959
atom -3.68864 1.88177 11.45868 Cu 0.0 0.0 0.143452 0.503611 0.236168
atom 10.06887 7.51937 6.72777 Cu 0.0 0.0 -0.142997 -0.362640 -0.000286
atom 13.21808 11.02095 0.66562 Cu 0.0 0.0 -0.143452 -0.503611 -0.236168
atom -0.53943 5.38334 5.39653 Cu 0.0 0.0 0.142997 0.362640 0.000286
atom -1.00857 1.34357 5.36985 Cu 0.0 0.0 0.114400 0.356806 0.041984
atom 13.35615 6.98520 0.69230 Cu 0.0 0.0 -0.064111 -0.387625 -0.054750
atom 10.53801 11.55914 6.75445 Cu 0.0 0.0 -0.114400 -0.356806 -0.041984
atom -3.82671 5.91752 11.43200 Cu 0.0 0.0 0.064111 0.387625 0.054750
atom 8.16127 2.38528 12.03094 Cu 0.0 0.0 0.100375 0.176222 0.070855
atom -1.74330 7.93659 6.15551 Cu 0.0 0.0 0.182411 0.075419 0.288935
atom 1.36817 10.51744 0.09336 Cu 0.0 0.0 -0.100375 -0.176222 -0.070855
atom 11.27273 4.96613 5.96879 Cu 0.0 0.0 -0.182411 -0.075419 -0.288935
atom 11.15543 2.15890 6.18218 Cu 0.0 0.0 0.216047 0.174122 0.011645
atom -4.71986 8.59216 12.00427 Cu 0.0 0.0 0.046412 -0.021391 0.271316
atom -1.62599 10.74381 5.94212 Cu 0.0 0.0 -0.216047 -0.174122 -0.011645
atom 14.24929 4.31056 0.12003 Cu 0.0 0.0 -0.046412 0.021391 -0.271316
atom 9.09989 3.37756 4.98187 Cu 0.0 0.0 0.122743 0.487526 0.001429
atom 3.41686 9.07769 1.08028 Cu 0.0 0.0 -0.134188 -0.329399 -0.047976
atom 0.42955 9.52516 7.14243 Cu 0.0 0.0 -0.122743 -0.487526 -0.001429
atom 6.11258 3.82503 11.04402 Cu 0.0 0.0 0.134188 0.329399 0.047976
atom 1.13697 2.62524 11.33380 Cu 0.0 0.0 -0.007725 0.195219 0.009820
atom 5.30499 8.28167 6.85265 Cu 0.0 0.0 0.138761 0.076786 -0.211045
atom 8.39247 10.27748 0.79050 Cu 0.0 0.0 0.007725 -0.195219 -0.009820
atom 4.22444 4.62104 5.27165 Cu 0.0 0.0 -0.138761 -0.076786 0.211045
atom 3.82509 1.87451 5.32014 Cu 0.0 0.0 0.063680 0.114754 -0.203108
atom 8.56632 7.52364 0.74201 Cu 0.0 0.0 0.045594 0.147825 -0.297255
atom 5.70434 11.02820 6.80416 Cu 0.0 0.0 -0.063680 -0.114754 0.203108
atom 0.96311 5.37908 11.38229 Cu 0.0 0.0 -0.045594 -0.147825 0.297255
atom -1.09606 3.60336 10.31414 Cu 0.0 0.0 0.112849 0.041780 0.038763
atom 7.62452 9.41355 7.87231 Cu 0.0 0.0 -0.095116 0.015274 -0.015252
atom 10.62550 9.29936 1.81016 Cu 0.0 0.0 -0.112849 -0.041780 -0.038763
atom 1.90491 3.48917 4.25199 Cu 0.0 0.0 0.095116 -0.015274 0.015252
atom 8.26063 1.05354 8.28090 Cu 0.0 0.0 0.016279 -0.212870 0.203669
atom -1.92867 7.17033 9.90555 Cu 0.0 0.0 -0.014479 0.175244 0.361664
atom 1.26880 11.84918 3.84340 Cu 0.0 0.0 -0.016279 0.212870 -0.203669
atom 11.45811 5.73239 2.21875 Cu 0.0 0.0 0.014479 -0.175244 -0.361664
atom 10.78666 0.90084 2.02597 Cu 0.0 0.0 0.027634 0.099603 -0.037156
atom 1.54528 7.04670 4.03618 Cu 0.0 0.0 -0.112184 -0.072103 0.068043
atom -1.25723 12.00188 10.09833 Cu 0.0 0.0 -0.027634 -0.099603 0.037156
atom 7.98415 5.85602 8.08812 Cu 0.0 0.0 0.112184 0.072103 -0.068043
atom -4.12068 3.15755 9.36238 Cu 0.0 0.0 -0.105898 -0.053129 0.029849
atom 10.61847 9.11126 8.82407 Cu 0.0 0.0 -0.091125 0.096486 -0.023522
atom 13.65011 9.74516 2.76192 Cu 0.0 0.0 0.105898 0.053129 -0.029849
atom -1.08903 3.79145 3.30023 Cu 0.0 0.0 0.091125 -0.096486 0.023522
atom 5.89101 1.21216 3.43603 Cu 0.0 0.0 0.024483 0.318485 0.012590
atom 6.45775 7.14539 2.62612 Cu 0.0 0.0 0.032008 -0.186937 0.011693
atom 3.63843 11.69056 8.68827 Cu 0.0 0.0 -0.024483 -0.318485 -0.012590
atom 3.07169 5.75733 9.49818 Cu 0.0 0.0 -0.032008 0.186937 -0.011693
atom 0.83619 1.08980 7.55344 Cu 0.0 0.0 -0.188992 -0.143808 -0.075218
atom 5.50324 7.31629 10.63301 Cu 0.0 0.0 -0.057314 0.208219 -0.414012
atom 8.69324 11.81291 4.57086 Cu 0.0 0.0 0.188992 0.143808 0.075218
atom 4.02619 5.58643 1.49129 Cu 0.0 0.0 0.057314 -0.208219 0.414012
atom 3.79988 0.63911 1.62344 Cu 0.0 0.0 0.169202 -0.146982 -0.133150
atom 8.51309 6.84566 4.43871 Cu 0.0 0.0 0.006361 0.284638 -0.372829
atom 5.72956 12.26361 10.50086 Cu 0.0 0.0 -0.169202 0.146982 0.133150
atom 1.01634 6.05705 7.68559 Cu 0.0 0.0 -0.006361 -0.284638 0.372829
atom 3.46694 3.18555 9.14536 Cu 0.0 0.0 -0.012323 -0.103110 -0.086602
atom 3.03449 9.17198 9.04109 Cu 0.0 0.0 -0.063294 0.259982 -0.177521
atom 6.06250 9.71717 2.97894 Cu 0.0 0.0 0.012323 0.103110 0.086602
atom 6.49495 3.73073 3.08321 Cu 0.0 0.0 0.063294 -0.259982 0.177521
atom 13.74791 1.22422 2.62612 Cu 0.0 0.0 0.086835 0.202790 0.063283
atom -1.39316 7.27958 3.43603 Cu 0.0 0.0 -0.070762 -0.006545 0.012293
atom -4.21847 11.67849 9.49818 Cu 0.0 0.0 -0.086835 -0.202790 -0.063283
atom 10.92259 5.62313 8.68827 Cu 0.0 0.0 0.070762 0.006545 -0.012293
atom 3.70489 2.10847 11.55567 Cu 0.0 0.0 -0.091984 -0.347645 0.005838
atom 2.69332 7.73145 6.63078 Cu 0.0 0.0 0.133173 0.502897 -0.067900
atom 5.82454 10.79424 0.56863 Cu 0.0 0.0 0.091984 0.347645 -0.005838
atom 6.83611 5.17126 5.49352 Cu 0.0 0.0 -0.133173 -0.502897 0.067900
atom 7.27874 2.84788 6.86114 Cu 0.0 0.0 -0.200800 0.219604 0.078925
atom -0.79088 9.17876 11.32531 Cu 0.0 0.0 -0.157470 -0.092900 0.035732
atom 2.25069 10.05483 5.26316 Cu 0.0 0.0 0.200800 -0.219604 -0.078925
atom 10.32031 3.72395 0.79899 Cu 0.0 0.0 0.157470 0.092900 -0.035732
atom 2.31094 2.60823 1.69498 Cu 0.0 0.0 0.008123 0.190263 -0.090426
atom 10.16305 8.80400 4.36717 Cu 0.0 0.0 -0.176890 -0.104474 -0.083037