begin
comment 7.1142
comment Values for ['energy', 'charge', 'force of atom'] were set to default values
comment lattice 13.443888628	0.0000000000	0.0000000000
comment lattice 0.0000000000    13.443888628    0.0000000000
comment lattice 0.0000000000    0.0000000000	13.443888628
atom     1.028157    -6.568274    -4.947316  O      0.000000     0.000000    99.999999    99.999999    99.999999
atom     2.044122    -6.720650    -3.361233  H      0.000000     0.000000    99.999999    99.999999    99.999999
atom     2.047996    -5.677478    -6.265449  H      0.000000     0.000000    99.999999    99.999999    99.999999
atom    -2.251244     5.001400     2.312966  O      0.000000     0.000000    99.999999    99.999999    99.999999
atom    -3.259626     4.648046     0.754322  H      0.000000     0.000000    99.999999    99.999999    99.999999
atom    -1.359080     6.656536     2.124205  H      0.000000     0.000000    99.999999    99.999999    99.999999
atom    -5.540535     3.021270    -6.531319  O      0.000000     0.000000    99.999999    99.999999    99.999999
atom    -4.590141     1.967284     5.664809  H      0.000000     0.000000    99.999999    99.999999    99.999999
atom    -5.741625     2.058785    -4.917549  H      0.000000     0.000000    99.999999    99.999999    99.999999
atom    -5.569516    -3.056007    -2.392633  O      0.000000     0.000000    99.999999    99.999999    99.999999
atom    -4.235207    -4.267756    -1.824876  H      0.000000     0.000000    99.999999    99.999999    99.999999
atom    -5.335205    -2.676073    -4.228884  H      0.000000     0.000000    99.999999    99.999999    99.999999
atom     3.890725    -5.173106     1.858287  O      0.000000     0.000000    99.999999    99.999999    99.999999
atom     3.656354    -5.899659     0.129630  H      0.000000     0.000000    99.999999    99.999999    99.999999
atom     4.043014    -6.575570     3.115652  H      0.000000     0.000000    99.999999    99.999999    99.999999
atom     4.788553    -1.404664     6.550375  O      0.000000     0.000000    99.999999    99.999999    99.999999
atom     4.692487     0.111246     5.426163  H      0.000000     0.000000    99.999999    99.999999    99.999999
atom     5.597987    -0.923507    -5.255119  H      0.000000     0.000000    99.999999    99.999999    99.999999
atom     4.899111     3.390998    -0.338161  O      0.000000     0.000000    99.999999    99.999999    99.999999
atom     4.010505     2.412931    -1.689022  H      0.000000     0.000000    99.999999    99.999999    99.999999
atom     3.624548     4.273846     0.742177  H      0.000000     0.000000    99.999999    99.999999    99.999999
atom    -2.145157    -0.751897     4.443262  O      0.000000     0.000000    99.999999    99.999999    99.999999
atom    -2.083604    -0.274158     6.270567  H      0.000000     0.000000    99.999999    99.999999    99.999999
atom    -0.448676    -1.382278     3.899539  H      0.000000     0.000000    99.999999    99.999999    99.999999
atom    -0.679192     0.153782    -3.318525  O      0.000000     0.000000    99.999999    99.999999    99.999999
atom    -2.194004     1.271034    -3.486329  H      0.000000     0.000000    99.999999    99.999999    99.999999
atom     0.845229     1.209842    -2.955278  H      0.000000     0.000000    99.999999    99.999999    99.999999
atom    -4.643573    -5.273281     6.161282  O      0.000000     0.000000    99.999999    99.999999    99.999999
atom    -5.955633    -6.474485    -6.644906  H      0.000000     0.000000    99.999999    99.999999    99.999999
atom    -4.727755    -3.665300    -6.293485  H      0.000000     0.000000    99.999999    99.999999    99.999999
atom     3.135483     3.730329     4.850404  O      0.000000     0.000000    99.999999    99.999999    99.999999
atom     2.581358     2.181925     3.919564  H      0.000000     0.000000    99.999999    99.999999    99.999999
atom     4.873600     4.214662     4.288767  H      0.000000     0.000000    99.999999    99.999999    99.999999
atom    -0.747135    -3.943309    -0.127670  O      0.000000     0.000000    99.999999    99.999999    99.999999
atom    -1.347789    -5.120547     1.223029  H      0.000000     0.000000    99.999999    99.999999    99.999999
atom    -2.019919    -2.568933    -0.377034  H      0.000000     0.000000    99.999999    99.999999    99.999999
energy  99.999999
charge  0.0
end
